REMARK  5 active torsions:
REMARK  status: ('A' for Active; 'I' for Inactive)
REMARK    1  A    between atoms: C6_7  and  C14_18 
REMARK    2  A    between atoms: N3_9  and  C7_10 
REMARK    3  A    between atoms: C7_10  and  C8_11 
REMARK    4  A    between atoms: C16_21  and  C18_25 
REMARK    5  A    between atoms: C17_22  and  N6_24 
ROOT
HETATM    1  C1  UNL     1      31.496  23.982  39.633  1.00  0.00     0.119 A 
HETATM    2  C2  UNL     1      30.803  24.522  38.558  1.00  0.00     0.020 A 
HETATM    3  C3  UNL     1      30.542  25.893  38.543  1.00  0.00     0.019 A 
HETATM    4  C4  UNL     1      31.001  26.663  39.628  1.00  0.00     0.046 A 
HETATM    5  C5  UNL     1      31.686  25.993  40.632  1.00  0.00     0.158 A 
HETATM    6  N1  UNL     1      31.959  24.673  40.697  1.00  0.00    -0.241 NA
HETATM    7  C6  UNL     1      30.974  28.037  40.040  1.00  0.00     0.139 A 
HETATM    8  N2  UNL     1      31.596  28.185  41.231  1.00  0.00    -0.166 NA
HETATM    9  N3  UNL     1      32.033  26.946  41.545  1.00  0.00    -0.246 N 
ENDROOT
BRANCH   7  10
HETATM   10  C14 UNL     1      30.367  29.175  39.318  1.00  0.00     0.182 A 
HETATM   11  N4  UNL     1      29.778  28.920  38.135  1.00  0.00    -0.239 NA
HETATM   12  C15 UNL     1      29.238  29.982  37.508  1.00  0.00     0.130 A 
HETATM   13  C16 UNL     1      29.256  31.285  37.979  1.00  0.00     0.004 A 
HETATM   14  C17 UNL     1      29.882  31.417  39.220  1.00  0.00     0.111 A 
HETATM   15  N5  UNL     1      30.433  30.393  39.885  1.00  0.00    -0.215 NA
BRANCH  13  16
HETATM   16  C18 UNL     1      28.608  32.427  37.229  1.00  0.00     0.023 A 
HETATM   17  C19 UNL     1      27.102  32.553  37.160  1.00  0.00     0.010 A 
HETATM   18  C20 UNL     1      27.870  32.161  35.936  1.00  0.00     0.010 A 
ENDBRANCH  13  16
BRANCH  14  19
HETATM   19  N6  UNL     1      29.949  32.671  39.852  1.00  0.00    -0.286 NA
HETATM   20  H11 UNL     1      29.884  33.405  39.152  1.00  0.00     0.125 HD
HETATM   21  H12 UNL     1      30.845  32.767  40.319  1.00  0.00     0.125 HD
ENDBRANCH  14  19
ENDBRANCH   7  10
BRANCH   9  22
HETATM   22  C7  UNL     1      32.765  26.725  42.783  1.00  0.00     0.195 C 
BRANCH  22  23
HETATM   23  C8  UNL     1      34.227  27.054  42.634  1.00  0.00     0.000 A 
HETATM   24  C9  UNL     1      34.836  27.973  43.491  1.00  0.00     0.124 A 
HETATM   25  C10 UNL     1      36.186  28.292  43.372  1.00  0.00     0.043 A 
HETATM   26  F1  UNL     1      34.116  28.579  44.446  1.00  0.00    -0.205 F 
HETATM   27  C11 UNL     1      36.954  27.691  42.377  1.00  0.00     0.003 A 
HETATM   28  C12 UNL     1      36.364  26.775  41.506  1.00  0.00     0.001 A 
HETATM   29  C13 UNL     1      35.009  26.459  41.631  1.00  0.00     0.012 A 
ENDBRANCH  22  23
ENDBRANCH   9  22
TORSDOF 5
