REMARK  7 active torsions:
REMARK  status: ('A' for Active; 'I' for Inactive)
REMARK    1  A    between atoms: C7_7  and  C9_10 
REMARK    2  A    between atoms: N1_9  and  C11_13 
REMARK    3  A    between atoms: C9_10  and  C10_11 
REMARK    4  A    between atoms: C10_11  and  C16_18 
REMARK    5  A    between atoms: C11_13  and  C12_14 
REMARK    6  A    between atoms: C12_14  and  C13_15 
REMARK    7  A    between atoms: C13_15  and  C14_16 
ROOT
HETATM    1  C1  UNL     1      31.715  26.030  40.389  1.00  0.00     0.006 A 
HETATM    2  C2  UNL     1      31.177  26.593  39.219  1.00  0.00     0.045 A 
HETATM    3  C3  UNL     1      30.697  25.802  38.160  1.00  0.00     0.030 A 
HETATM    4  C4  UNL     1      30.771  24.414  38.273  1.00  0.00     0.002 A 
HETATM    5  C5  UNL     1      31.311  23.826  39.407  1.00  0.00     0.001 A 
HETATM    6  C6  UNL     1      31.782  24.618  40.460  1.00  0.00     0.014 A 
HETATM    7  C7  UNL     1      32.083  27.112  41.263  1.00  0.00     0.038 A 
HETATM    8  C8  UNL     1      31.774  28.277  40.580  1.00  0.00     0.107 A 
HETATM    9  N1  UNL     1      31.249  27.962  39.358  1.00  0.00    -0.355 N 
ENDROOT
BRANCH   7  10
HETATM   10  C9  UNL     1      32.666  27.140  42.611  1.00  0.00     0.166 C 
HETATM   11  O1  UNL     1      32.249  27.947  43.449  1.00  0.00    -0.292 OA
BRANCH  10  12
HETATM   12  C10 UNL     1      33.773  26.184  43.005  1.00  0.00     0.123 C 
BRANCH  12  13
HETATM   13  C16 UNL     1      35.145  26.794  43.231  1.00  0.00    -0.045 A 
HETATM   14  C17 UNL     1      36.077  26.870  42.169  1.00  0.00    -0.055 A 
HETATM   15  C18 UNL     1      37.340  27.442  42.396  1.00  0.00     0.007 A 
HETATM   16  C22 UNL     1      35.749  26.372  40.786  1.00  0.00     0.049 C 
HETATM   17  C19 UNL     1      37.697  27.907  43.659  1.00  0.00     0.001 A 
HETATM   18  C20 UNL     1      36.799  27.802  44.714  1.00  0.00     0.001 A 
HETATM   19  C21 UNL     1      35.538  27.245  44.504  1.00  0.00     0.008 A 
ENDBRANCH  12  13
ENDBRANCH  10  12
ENDBRANCH   7  10
BRANCH   9  20
HETATM   20  C11 UNL     1      30.819  28.959  38.390  1.00  0.00     0.128 C 
BRANCH  20  21
HETATM   21  C12 UNL     1      29.671  29.843  38.890  1.00  0.00     0.020 C 
BRANCH  21  22
HETATM   22  C13 UNL     1      28.394  29.090  39.275  1.00  0.00     0.001 C 
BRANCH  22  23
HETATM   23  C14 UNL     1      27.695  29.681  40.501  1.00  0.00    -0.004 C 
HETATM   24  C15 UNL     1      28.541  30.763  41.153  1.00  0.00     0.005 C 
ENDBRANCH  22  23
ENDBRANCH  21  22
ENDBRANCH  20  21
ENDBRANCH   9  20
TORSDOF 7
