REMARK  6 active torsions:
REMARK  status: ('A' for Active; 'I' for Inactive)
REMARK    1  A    between atoms: C7_7  and  C13_14 
REMARK    2  A    between atoms: N1_9  and  C9_10 
REMARK    3  A    between atoms: C9_10  and  C10_11 
REMARK    4  A    between atoms: C10_11  and  C11_12 
REMARK    5  A    between atoms: C13_14  and  C14_15 
REMARK    6  A    between atoms: C17_19  and  O2_22 
ROOT
HETATM    1  C1  UNL     1      30.673  24.257  38.079  1.00  0.00     0.002 A 
HETATM    2  C2  UNL     1      31.237  23.777  39.256  1.00  0.00     0.001 A 
HETATM    3  C3  UNL     1      31.661  24.662  40.251  1.00  0.00     0.015 A 
HETATM    4  C4  UNL     1      31.519  26.055  40.064  1.00  0.00     0.006 A 
HETATM    5  C5  UNL     1      30.949  26.512  38.871  1.00  0.00     0.045 A 
HETATM    6  C6  UNL     1      30.519  25.630  37.865  1.00  0.00     0.030 A 
HETATM    7  C7  UNL     1      31.852  27.201  40.862  1.00  0.00     0.043 A 
HETATM    8  C8  UNL     1      31.446  28.309  40.137  1.00  0.00     0.107 A 
HETATM    9  N1  UNL     1      30.915  27.887  38.946  1.00  0.00    -0.355 N 
ENDROOT
BRANCH   7  10
HETATM   10  C13 UNL     1      32.455  27.196  42.195  1.00  0.00     0.194 C 
HETATM   11  O1  UNL     1      31.782  27.235  43.224  1.00  0.00    -0.287 OA
BRANCH  10  12
HETATM   12  C14 UNL     1      33.933  27.155  42.335  1.00  0.00     0.015 A 
HETATM   13  C15 UNL     1      34.503  27.564  43.548  1.00  0.00     0.018 A 
HETATM   14  C16 UNL     1      35.890  27.522  43.727  1.00  0.00     0.037 A 
HETATM   15  C17 UNL     1      36.715  27.059  42.700  1.00  0.00     0.068 A 
HETATM   16  C18 UNL     1      36.142  26.631  41.499  1.00  0.00     0.037 A 
HETATM   17  C19 UNL     1      34.757  26.669  41.315  1.00  0.00     0.018 A 
BRANCH  15  18
HETATM   18  O2  UNL     1      38.079  26.970  42.744  1.00  0.00    -0.356 OA
HETATM   19  C20 UNL     1      38.809  28.181  42.592  1.00  0.00     0.210 C 
ENDBRANCH  15  18
ENDBRANCH  10  12
ENDBRANCH   7  10
BRANCH   9  20
HETATM   20  C9  UNL     1      30.396  28.780  37.922  1.00  0.00     0.128 C 
BRANCH  20  21
HETATM   21  C10 UNL     1      29.705  30.003  38.522  1.00  0.00     0.020 C 
BRANCH  21  22
HETATM   22  C11 UNL     1      28.208  29.759  38.700  1.00  0.00    -0.003 C 
HETATM   23  C12 UNL     1      27.867  29.423  40.143  1.00  0.00     0.005 C 
ENDBRANCH  21  22
ENDBRANCH  20  21
ENDBRANCH   9  20
TORSDOF 6
