REMARK  7 active torsions:
REMARK  status: ('A' for Active; 'I' for Inactive)
REMARK    1  A    between atoms: N1_7  and  C16_18 
REMARK    2  A    between atoms: C8_9  and  C9_10 
REMARK    3  A    between atoms: C9_10  and  C10_12 
REMARK    4  A    between atoms: C16_18  and  C17_19 
REMARK    5  A    between atoms: C17_19  and  C18_20 
REMARK    6  A    between atoms: C18_20  and  C19_21 
REMARK    7  A    between atoms: C19_21  and  C20_22 
ROOT
HETATM    1  C1  UNL     1      31.013  27.251  36.440  1.00  0.00     0.001 A 
HETATM    2  C2  UNL     1      30.703  28.495  35.906  1.00  0.00     0.002 A 
HETATM    3  C3  UNL     1      30.443  29.586  36.738  1.00  0.00     0.030 A 
HETATM    4  C4  UNL     1      30.493  29.393  38.130  1.00  0.00     0.045 A 
HETATM    5  C5  UNL     1      30.776  28.143  38.696  1.00  0.00     0.006 A 
HETATM    6  C6  UNL     1      31.058  27.065  37.826  1.00  0.00     0.015 A 
HETATM    7  N1  UNL     1      30.308  30.276  39.173  1.00  0.00    -0.355 N 
HETATM    8  C7  UNL     1      30.473  29.631  40.368  1.00  0.00     0.107 A 
HETATM    9  C8  UNL     1      30.724  28.293  40.124  1.00  0.00     0.043 A 
ENDROOT
BRANCH   9  10
HETATM   10  C9  UNL     1      30.929  27.317  41.190  1.00  0.00     0.194 C 
HETATM   11  O1  UNL     1      30.091  26.458  41.460  1.00  0.00    -0.287 OA
BRANCH  10  12
HETATM   12  C10 UNL     1      32.196  27.327  41.964  1.00  0.00     0.015 A 
HETATM   13  C11 UNL     1      33.223  26.408  41.704  1.00  0.00     0.017 A 
HETATM   14  C12 UNL     1      34.395  26.435  42.467  1.00  0.00     0.019 A 
HETATM   15  C13 UNL     1      34.531  27.367  43.496  1.00  0.00     0.006 A 
HETATM   16  C14 UNL     1      33.504  28.269  43.777  1.00  0.00     0.019 A 
HETATM   17  I1  UNL     1      36.275  27.404  44.627  1.00  0.00    -0.045 I 
HETATM   18  C15 UNL     1      32.333  28.244  43.015  1.00  0.00     0.017 A 
ENDBRANCH  10  12
ENDBRANCH   9  10
BRANCH   7  19
HETATM   19  C16 UNL     1      30.034  31.699  39.059  1.00  0.00     0.128 C 
BRANCH  19  20
HETATM   20  C17 UNL     1      28.576  32.071  39.343  1.00  0.00     0.020 C 
BRANCH  20  21
HETATM   21  C18 UNL     1      28.352  32.566  40.775  1.00  0.00     0.004 C 
BRANCH  21  22
HETATM   22  C19 UNL     1      27.613  31.559  41.661  1.00  0.00     0.031 C 
BRANCH  22  23
HETATM   23  C20 UNL     1      26.615  30.694  40.908  1.00  0.00     0.222 C 
HETATM   24  F1  UNL     1      27.116  29.438  40.784  1.00  0.00    -0.255 F 
ENDBRANCH  22  23
ENDBRANCH  21  22
ENDBRANCH  20  21
ENDBRANCH  19  20
ENDBRANCH   7  19
TORSDOF 7
