REMARK  13 active torsions:
REMARK  status: ('A' for Active; 'I' for Inactive)
REMARK    1  A    between atoms: C1_1  and  O3_20 
REMARK    2  A    between atoms: C2_2  and  C12_13 
REMARK    3  A    between atoms: C8_9  and  C9_10 
REMARK    4  A    between atoms: C9_10  and  C10_11 
REMARK    5  A    between atoms: C10_11  and  C11_12 
REMARK    6  A    between atoms: C11_12  and  C22_27 
REMARK    7  A    between atoms: C13_14  and  C14_15 
REMARK    8  A    between atoms: C14_15  and  C15_16 
REMARK    9  A    between atoms: C14_15  and  O2_19 
REMARK   10  A    between atoms: C15_16  and  C16_17 
REMARK   11  A    between atoms: C16_17  and  C17_18 
REMARK   12  A    between atoms: C19_22  and  C20_23 
REMARK   13  A    between atoms: C22_27  and  O5_29 
ROOT
HETATM    1  C1  UNL     1      30.494  26.174  40.351  1.00  0.00     0.129 C 
HETATM    2  C2  UNL     1      30.384  27.392  41.289  1.00  0.00     0.049 C 
HETATM    3  C3  UNL     1      31.839  27.883  41.406  1.00  0.00     0.105 C 
HETATM    4  C4  UNL     1      32.511  27.494  40.089  1.00  0.00     0.142 C 
HETATM    5  C5  UNL     1      31.560  26.565  39.331  1.00  0.00     0.065 C 
HETATM    6  C6  UNL     1      32.676  27.200  42.463  1.00  0.00     0.298 C 
HETATM    7  C7  UNL     1      33.830  26.624  41.712  1.00  0.00     0.115 C 
HETATM    8  O1  UNL     1      33.760  26.846  40.346  1.00  0.00    -0.344 OA
HETATM    9  C8  UNL     1      34.880  25.961  42.220  1.00  0.00     0.012 C 
HETATM   10  F1  UNL     1      33.084  28.133  43.368  1.00  0.00    -0.198 F 
HETATM   11  F2  UNL     1      31.974  26.279  43.166  1.00  0.00    -0.198 F 
ENDROOT
BRANCH   2  12
HETATM   12  C12 UNL     1      29.485  28.530  40.837  1.00  0.00    -0.020 C 
HETATM   13  C13 UNL     1      29.740  29.849  40.855  1.00  0.00     0.001 C 
BRANCH  13  14
HETATM   14  C14 UNL     1      28.778  30.903  40.372  1.00  0.00     0.145 C 
BRANCH  14  15
HETATM   15  C15 UNL     1      28.891  31.152  38.849  1.00  0.00     0.025 C 
HETATM   16  C18 UNL     1      27.857  30.375  38.022  1.00  0.00     0.014 C 
BRANCH  15  17
HETATM   17  C16 UNL     1      30.321  30.906  38.323  1.00  0.00     0.101 C 
BRANCH  17  18
HETATM   18  C17 UNL     1      30.410  29.957  37.204  1.00  0.00    -0.106 C 
HETATM   19  C19 UNL     1      30.478  29.179  36.293  1.00  0.00    -0.107 C 
BRANCH  19  20
HETATM   20  C20 UNL     1      30.545  28.212  35.190  1.00  0.00     0.089 C 
HETATM   21  C21 UNL     1      30.908  26.826  35.698  1.00  0.00     0.018 C 
ENDBRANCH  19  20
ENDBRANCH  17  18
ENDBRANCH  15  17
ENDBRANCH  14  15
BRANCH  14  22
HETATM   22  O2  UNL     1      29.080  32.078  41.111  1.00  0.00    -0.391 OA
HETATM   23  H20 UNL     1      29.708  32.596  40.580  1.00  0.00     0.210 HD
ENDBRANCH  14  22
ENDBRANCH  13  14
ENDBRANCH   2  12
BRANCH   1  24
HETATM   24  O3  UNL     1      30.955  25.026  41.056  1.00  0.00    -0.395 OA
HETATM   25  H21 UNL     1      30.611  24.232  40.611  1.00  0.00     0.210 HD
ENDBRANCH   1  24
BRANCH   9  26
HETATM   26  C9  UNL     1      35.102  25.638  43.670  1.00  0.00     0.030 C 
BRANCH  26  27
HETATM   27  C10 UNL     1      36.340  26.328  44.246  1.00  0.00     0.014 C 
BRANCH  27  28
HETATM   28  C11 UNL     1      36.137  27.825  44.460  1.00  0.00     0.110 C 
BRANCH  28  29
HETATM   29  C22 UNL     1      36.749  28.605  43.333  1.00  0.00     0.139 C 
HETATM   30  O4  UNL     1      37.921  28.593  42.999  1.00  0.00    -0.650 OA
BRANCH  29  31
HETATM   31  O5  UNL     1      35.848  29.347  42.661  1.00  0.00    -0.776 OA
HETATM   32  H30 UNL     1      36.133  29.276  41.726  1.00  0.00     0.167 HD
ENDBRANCH  29  31
ENDBRANCH  28  29
ENDBRANCH  27  28
ENDBRANCH  26  27
ENDBRANCH   9  26
TORSDOF 13
