REMARK  17 active torsions:
REMARK  status: ('A' for Active; 'I' for Inactive)
REMARK    1  A    between atoms: C1_1  and  C2_2 
REMARK    2  A    between atoms: C2_2  and  C3_3 
REMARK    3  A    between atoms: C3_3  and  C4_4 
REMARK    4  A    between atoms: C4_4  and  C6_6 
REMARK    5  A    between atoms: C5_5  and  C8_8 
REMARK    6  A    between atoms: C6_6  and  C7_7 
REMARK    7  A    between atoms: C7_7  and  C10_10 
REMARK    8  A    between atoms: C8_8  and  C9_9 
REMARK    9  A    between atoms: C9_9  and  C11_11 
REMARK   10  A    between atoms: C10_10  and  C12_12 
REMARK   11  A    between atoms: C11_11  and  C15_15 
REMARK   12  A    between atoms: C12_12  and  C13_13 
REMARK   13  A    between atoms: C13_13  and  C14_14 
REMARK   14  A    between atoms: C14_14  and  C19_23 
REMARK   15  A    between atoms: C15_15  and  N1_16 
REMARK       I    between atoms: N1_16  and  C16_17 
REMARK   16  A    between atoms: C16_17  and  C17_18 
REMARK       I    between atoms: C17_18  and  N2_21 
REMARK   17  A    between atoms: C19_23  and  O4_25 
ROOT
HETATM    1  C1  UNL     1      31.169  24.444  38.860  1.00  0.00    -0.031 C 
HETATM    2  C5  UNL     1      31.472  24.210  40.147  1.00  0.00    -0.031 C 
ENDROOT
BRANCH   1   3
HETATM    3  C2  UNL     1      30.182  25.439  38.317  1.00  0.00     0.027 C 
BRANCH   3   4
HETATM    4  C3  UNL     1      30.839  26.731  37.823  1.00  0.00     0.004 C 
BRANCH   4   5
HETATM    5  C4  UNL     1      31.602  27.471  38.928  1.00  0.00     0.000 C 
BRANCH   5   6
HETATM    6  C6  UNL     1      30.869  28.744  39.352  1.00  0.00     0.000 C 
BRANCH   6   7
HETATM    7  C7  UNL     1      29.687  28.484  40.292  1.00  0.00     0.000 C 
BRANCH   7   8
HETATM    8  C10 UNL     1      28.314  28.932  39.780  1.00  0.00     0.000 C 
BRANCH   8   9
HETATM    9  C12 UNL     1      28.357  29.565  38.388  1.00  0.00     0.001 C 
BRANCH   9  10
HETATM   10  C13 UNL     1      27.905  31.029  38.434  1.00  0.00     0.010 C 
BRANCH  10  11
HETATM   11  C14 UNL     1      29.027  31.999  38.063  1.00  0.00     0.110 C 
BRANCH  11  12
HETATM   12  C19 UNL     1      29.758  32.539  39.265  1.00  0.00     0.139 C 
HETATM   13  O3  UNL     1      29.649  32.185  40.426  1.00  0.00    -0.650 OA
BRANCH  12  14
HETATM   14  O4  UNL     1      30.631  33.509  38.924  1.00  0.00    -0.776 OA
HETATM   15  H34 UNL     1      30.481  34.209  39.593  1.00  0.00     0.167 HD
ENDBRANCH  12  14
ENDBRANCH  11  12
ENDBRANCH  10  11
ENDBRANCH   9  10
ENDBRANCH   8   9
ENDBRANCH   7   8
ENDBRANCH   6   7
ENDBRANCH   5   6
ENDBRANCH   4   5
ENDBRANCH   3   4
ENDBRANCH   1   3
BRANCH   2  16
HETATM   16  C8  UNL     1      30.944  24.925  41.359  1.00  0.00     0.027 C 
BRANCH  16  17
HETATM   17  C9  UNL     1      32.029  25.633  42.178  1.00  0.00     0.005 C 
BRANCH  17  18
HETATM   18  C11 UNL     1      31.541  26.814  43.027  1.00  0.00     0.020 C 
BRANCH  18  19
HETATM   19  C15 UNL     1      32.318  28.119  42.877  1.00  0.00     0.123 C 
BRANCH  19  20
HETATM   20  N1  UNL     1      33.661  27.921  42.388  1.00  0.00    -0.353 N 
HETATM   21  C16 UNL     1      34.766  27.947  43.204  1.00  0.00     0.309 C 
HETATM   22  O1  UNL     1      34.767  28.055  44.421  1.00  0.00    -0.262 OA
HETATM   23  H29 UNL     1      33.832  27.882  41.386  1.00  0.00     0.162 HD
BRANCH  21  24
HETATM   24  C17 UNL     1      36.103  27.827  42.436  1.00  0.00     0.308 C 
HETATM   25  O2  UNL     1      36.134  27.303  41.331  1.00  0.00    -0.262 OA
HETATM   26  N2  UNL     1      37.177  28.349  43.122  1.00  0.00    -0.357 N 
HETATM   27  C18 UNL     1      38.525  28.221  42.646  1.00  0.00     0.149 C 
HETATM   28  H30 UNL     1      36.991  28.661  44.072  1.00  0.00     0.162 HD
ENDBRANCH  21  24
ENDBRANCH  19  20
ENDBRANCH  18  19
ENDBRANCH  17  18
ENDBRANCH  16  17
ENDBRANCH   2  16
TORSDOF 17
