REMARK  4 active torsions:
REMARK  status: ('A' for Active; 'I' for Inactive)
REMARK    1  A    between atoms: C2_2  and  C5_6 
REMARK    2  A    between atoms: N1_4  and  C11_13 
REMARK    3  A    between atoms: C5_6  and  C6_7 
REMARK    4  A    between atoms: C11_13  and  C12_14 
ROOT
HETATM    1  C1  UNL     1      31.089  26.523  39.283  1.00  0.00     0.006 A 
HETATM    2  C2  UNL     1      31.169  27.915  39.632  1.00  0.00     0.038 A 
HETATM    3  C3  UNL     1      31.675  27.963  40.920  1.00  0.00     0.107 A 
HETATM    4  N1  UNL     1      31.931  26.690  41.349  1.00  0.00    -0.355 N 
HETATM    5  C4  UNL     1      31.593  25.786  40.366  1.00  0.00     0.045 A 
HETATM    6  C7  UNL     1      31.673  24.382  40.342  1.00  0.00     0.030 A 
HETATM    7  C8  UNL     1      31.222  23.708  39.205  1.00  0.00     0.002 A 
HETATM    8  C9  UNL     1      30.699  24.409  38.127  1.00  0.00     0.001 A 
HETATM    9  C10 UNL     1      30.624  25.805  38.157  1.00  0.00     0.014 A 
ENDROOT
BRANCH   2  10
HETATM   10  C5  UNL     1      30.813  29.123  38.894  1.00  0.00     0.167 C 
HETATM   11  O1  UNL     1      30.972  29.226  37.682  1.00  0.00    -0.292 OA
BRANCH  10  12
HETATM   12  C6  UNL     1      30.259  30.270  39.671  1.00  0.00     0.077 A 
HETATM   13  C17 UNL     1      29.331  31.300  39.018  1.00  0.00    -0.029 A 
HETATM   14  C18 UNL     1      28.797  30.367  40.114  1.00  0.00    -0.029 A 
HETATM   15  C19 UNL     1      28.853  31.121  37.592  1.00  0.00     0.016 C 
HETATM   16  C22 UNL     1      29.592  32.759  39.336  1.00  0.00     0.016 C 
HETATM   17  C20 UNL     1      28.503  30.946  41.481  1.00  0.00     0.016 C 
HETATM   18  C21 UNL     1      27.814  29.274  39.743  1.00  0.00     0.016 C 
ENDBRANCH  10  12
ENDBRANCH   2  10
BRANCH   4  19
HETATM   19  C11 UNL     1      32.493  26.378  42.654  1.00  0.00     0.133 C 
BRANCH  19  20
HETATM   20  C12 UNL     1      34.019  26.544  42.720  1.00  0.00     0.008 C 
HETATM   21  C13 UNL     1      34.685  26.398  41.343  1.00  0.00     0.032 C 
HETATM   22  C14 UNL     1      36.171  26.726  41.419  1.00  0.00     0.168 C 
HETATM   23  O2  UNL     1      36.370  28.034  41.952  1.00  0.00    -0.391 OA
HETATM   24  C15 UNL     1      35.879  28.150  43.286  1.00  0.00     0.168 C 
HETATM   25  C16 UNL     1      34.375  27.913  43.321  1.00  0.00     0.032 C 
ENDBRANCH  19  20
ENDBRANCH   4  19
TORSDOF 4
