REMARK  4 active torsions:
REMARK  status: ('A' for Active; 'I' for Inactive)
REMARK    1  A    between atoms: C1_1  and  C11_14 
REMARK    2  A    between atoms: C6_6  and  O2_28 
REMARK    3  A    between atoms: N3_13  and  C14_19 
REMARK    4  A    between atoms: C14_19  and  C15_20 
ROOT
HETATM    1  C1  UNL     1      31.902  27.349  40.251  1.00  0.00     0.014 A 
HETATM    2  C2  UNL     1      31.919  26.820  38.953  1.00  0.00     0.048 A 
HETATM    3  C3  UNL     1      31.297  27.447  37.887  1.00  0.00     0.070 A 
HETATM    4  C4  UNL     1      30.629  28.682  38.102  1.00  0.00     0.025 A 
HETATM    5  C5  UNL     1      30.576  29.187  39.430  1.00  0.00     0.053 A 
HETATM    6  C6  UNL     1      31.216  28.543  40.496  1.00  0.00     0.080 A 
HETATM    7  N1  UNL     1      31.358  26.814  36.697  1.00  0.00    -0.258 NA
HETATM    8  C7  UNL     1      30.736  27.358  35.633  1.00  0.00     0.149 A 
HETATM    9  C8  UNL     1      30.090  28.554  35.739  1.00  0.00     0.082 A 
HETATM   10  C9  UNL     1      30.055  29.252  36.948  1.00  0.00     0.080 A 
HETATM   11  N2  UNL     1      29.390  29.257  34.773  1.00  0.00    -0.305 N 
HETATM   12  C10 UNL     1      28.899  30.433  35.336  1.00  0.00     0.328 A 
HETATM   13  N3  UNL     1      29.372  30.470  36.670  1.00  0.00    -0.286 N 
HETATM   14  O3  UNL     1      28.210  31.245  34.746  1.00  0.00    -0.246 OA
HETATM   15  H4  UNL     1      29.211  28.985  33.819  1.00  0.00     0.171 HD
ENDROOT
BRANCH  13  16
HETATM   16  C14 UNL     1      29.082  31.574  37.575  1.00  0.00     0.142 C 
HETATM   17  C23 UNL     1      30.385  32.127  38.158  1.00  0.00     0.039 C 
BRANCH  16  18
HETATM   18  C15 UNL     1      28.029  31.252  38.643  1.00  0.00     0.057 A 
HETATM   19  C16 UNL     1      26.894  30.506  38.314  1.00  0.00     0.029 A 
HETATM   20  C17 UNL     1      25.926  30.271  39.287  1.00  0.00     0.003 A 
HETATM   21  C18 UNL     1      26.100  30.795  40.560  1.00  0.00     0.019 A 
HETATM   22  C19 UNL     1      27.235  31.545  40.805  1.00  0.00     0.117 A 
HETATM   23  N5  UNL     1      28.185  31.799  39.878  1.00  0.00    -0.263 NA
ENDBRANCH  16  18
ENDBRANCH  13  16
BRANCH   6  24
HETATM   24  O2  UNL     1      31.207  28.998  41.789  1.00  0.00    -0.355 OA
HETATM   25  C22 UNL     1      29.966  29.405  42.350  1.00  0.00     0.210 C 
ENDBRANCH   6  24
BRANCH   1  26
HETATM   26  C11 UNL     1      32.579  26.623  41.311  1.00  0.00     0.035 A 
HETATM   27  C12 UNL     1      31.943  25.936  42.323  1.00  0.00     0.088 A 
HETATM   28  O1  UNL     1      32.877  25.380  43.141  1.00  0.00    -0.217 OA
HETATM   29  C20 UNL     1      30.535  25.685  42.685  1.00  0.00     0.080 C 
HETATM   30  N4  UNL     1      34.142  25.682  42.677  1.00  0.00    -0.133 NA
HETATM   31  C13 UNL     1      33.960  26.425  41.577  1.00  0.00     0.072 A 
HETATM   32  C21 UNL     1      35.133  26.925  40.823  1.00  0.00     0.074 C 
ENDBRANCH   1  26
TORSDOF 4
