REMARK  18 active torsions:
REMARK  status: ('A' for Active; 'I' for Inactive)
REMARK    1  A    between atoms: C1_1  and  C4_4 
REMARK    2  A    between atoms: C2_2  and  C3_3 
REMARK    3  A    between atoms: C5_5  and  C7_7 
REMARK    4  A    between atoms: C6_6  and  C8_8 
REMARK    5  A    between atoms: C8_8  and  C9_9 
REMARK    6  A    between atoms: C8_8  and  O1_13 
REMARK    7  A    between atoms: C9_9  and  C10_10 
REMARK    8  A    between atoms: C11_11  and  C12_12 
REMARK    9  A    between atoms: C13_14  and  C14_15 
REMARK   10  A    between atoms: C14_15  and  C15_16 
REMARK   11  A    between atoms: C14_15  and  O3_23 
REMARK   12  A    between atoms: C15_16  and  C16_17 
REMARK   13  A    between atoms: C15_16  and  O2_22 
REMARK   14  A    between atoms: C16_17  and  C17_18 
REMARK   15  A    between atoms: C18_19  and  C19_20 
REMARK   16  A    between atoms: C19_20  and  C20_21 
REMARK   17  A    between atoms: C20_21  and  C22_25 
REMARK   18  A    between atoms: C22_25  and  O5_27 
ROOT
HETATM    1  C7  UNL     1      30.814  28.268  38.708  1.00  0.00    -0.001 C 
HETATM    2  C13 UNL     1      30.624  29.560  39.016  1.00  0.00     0.007 C 
ENDROOT
BRANCH   2   3
HETATM    3  C14 UNL     1      30.552  30.670  37.999  1.00  0.00     0.170 C 
BRANCH   3   4
HETATM    4  C15 UNL     1      29.144  31.321  37.946  1.00  0.00     0.154 C 
BRANCH   4   5
HETATM    5  C16 UNL     1      28.023  30.312  37.622  1.00  0.00     0.061 C 
BRANCH   5   6
HETATM    6  C17 UNL     1      26.694  30.634  38.250  1.00  0.00    -0.028 C 
HETATM    7  C18 UNL     1      26.377  30.611  39.555  1.00  0.00    -0.030 C 
BRANCH   7   8
HETATM    8  C19 UNL     1      27.291  30.313  40.711  1.00  0.00     0.037 C 
BRANCH   8   9
HETATM    9  C20 UNL     1      27.359  31.461  41.710  1.00  0.00     0.113 C 
BRANCH   9  10
HETATM   10  C22 UNL     1      28.117  32.639  41.169  1.00  0.00     0.139 C 
HETATM   11  O4  UNL     1      29.299  32.661  40.867  1.00  0.00    -0.650 OA
BRANCH  10  12
HETATM   12  O5  UNL     1      27.365  33.753  41.075  1.00  0.00    -0.776 OA
HETATM   13  H32 UNL     1      27.985  34.474  41.318  1.00  0.00     0.167 HD
ENDBRANCH  10  12
ENDBRANCH   9  10
ENDBRANCH   8   9
ENDBRANCH   7   8
ENDBRANCH   5   6
ENDBRANCH   4   5
BRANCH   4  14
HETATM   14  O2  UNL     1      29.130  32.333  36.923  1.00  0.00    -0.392 OA
HETATM   15  H30 UNL     1      30.057  32.542  36.716  1.00  0.00     0.210 HD
ENDBRANCH   4  14
ENDBRANCH   3   4
BRANCH   3  16
HETATM   16  O3  UNL     1      30.899  30.083  36.748  1.00  0.00    -0.389 OA
HETATM   17  H31 UNL     1      30.776  30.774  36.075  1.00  0.00     0.210 HD
ENDBRANCH   3  16
ENDBRANCH   2   3
BRANCH   1  18
HETATM   18  C5  UNL     1      30.874  27.226  39.707  1.00  0.00    -0.000 C 
HETATM   19  C3  UNL     1      30.596  27.440  41.003  1.00  0.00     0.000 C 
BRANCH  19  20
HETATM   20  C2  UNL     1      30.650  26.389  41.997  1.00  0.00     0.000 C 
HETATM   21  C1  UNL     1      31.691  26.058  42.779  1.00  0.00    -0.000 C 
BRANCH  21  22
HETATM   22  C4  UNL     1      33.005  26.665  42.799  1.00  0.00    -0.002 C 
HETATM   23  C6  UNL     1      33.306  27.716  43.582  1.00  0.00     0.005 C 
BRANCH  23  24
HETATM   24  C8  UNL     1      34.639  28.419  43.672  1.00  0.00     0.144 C 
BRANCH  24  25
HETATM   25  C9  UNL     1      35.730  27.573  44.359  1.00  0.00     0.062 C 
BRANCH  25  26
HETATM   26  C10 UNL     1      36.999  27.429  43.560  1.00  0.00    -0.028 C 
HETATM   27  C11 UNL     1      37.321  26.429  42.724  1.00  0.00    -0.031 C 
BRANCH  27  28
HETATM   28  C12 UNL     1      36.483  25.234  42.367  1.00  0.00     0.022 C 
HETATM   29  C21 UNL     1      36.665  24.113  43.378  1.00  0.00     0.009 C 
ENDBRANCH  27  28
ENDBRANCH  25  26
ENDBRANCH  24  25
BRANCH  24  30
HETATM   30  O1  UNL     1      35.100  28.777  42.368  1.00  0.00    -0.391 OA
HETATM   31  H18 UNL     1      35.556  27.998  42.007  1.00  0.00     0.210 HD
ENDBRANCH  24  30
ENDBRANCH  23  24
ENDBRANCH  21  22
ENDBRANCH  19  20
ENDBRANCH   1  18
TORSDOF 18
