REMARK  2 active torsions:
REMARK  status: ('A' for Active; 'I' for Inactive)
REMARK    1  A    between atoms: C2_2  and  O1_22 
REMARK    2  A    between atoms: C21_21  and  C26_27 
ROOT
HETATM    1  C1  UNL     1      33.177  25.714  41.079  1.00  0.00     0.033 C 
HETATM    2  C2  UNL     1      33.684  26.706  42.119  1.00  0.00     0.126 C 
HETATM    3  C3  UNL     1      32.558  27.559  42.762  1.00  0.00    -0.017 C 
HETATM    4  C4  UNL     1      31.702  28.212  41.615  1.00  0.00     0.004 C 
HETATM    5  C5  UNL     1      31.168  27.245  40.492  1.00  0.00    -0.035 C 
HETATM    6  C6  UNL     1      32.380  26.402  39.975  1.00  0.00     0.012 C 
HETATM    7  C7  UNL     1      30.585  29.160  42.095  1.00  0.00     0.007 C 
HETATM    8  C8  UNL     1      30.105  30.064  40.952  1.00  0.00     0.011 C 
HETATM    9  C9  UNL     1      29.626  29.320  39.674  1.00  0.00    -0.032 C 
HETATM   10  C10 UNL     1      30.647  28.166  39.299  1.00  0.00     0.003 C 
HETATM   11  C11 UNL     1      29.519  30.326  38.399  1.00  0.00    -0.032 C 
HETATM   12  C12 UNL     1      29.021  29.501  37.141  1.00  0.00    -0.000 C 
HETATM   13  C13 UNL     1      29.916  28.289  36.846  1.00  0.00     0.006 C 
HETATM   14  C14 UNL     1      30.160  27.390  38.056  1.00  0.00     0.006 C 
HETATM   15  C15 UNL     1      28.547  31.533  38.660  1.00  0.00     0.011 C 
HETATM   16  C16 UNL     1      28.184  32.371  37.414  1.00  0.00     0.010 C 
HETATM   17  C17 UNL     1      27.724  31.493  36.235  1.00  0.00    -0.039 C 
HETATM   18  C18 UNL     1      28.814  30.438  35.931  1.00  0.00     0.006 C 
HETATM   19  C19 UNL     1      27.671  32.219  34.882  1.00  0.00     0.010 C 
HETATM   20  C20 UNL     1      27.765  31.093  33.834  1.00  0.00     0.010 C 
HETATM   21  C21 UNL     1      28.403  29.868  34.548  1.00  0.00     0.018 C 
HETATM   22  C22 UNL     1      30.083  26.249  40.974  1.00  0.00     0.016 C 
HETATM   23  C23 UNL     1      28.218  28.746  40.024  1.00  0.00     0.016 C 
HETATM   24  C24 UNL     1      26.317  30.916  36.535  1.00  0.00     0.015 C 
HETATM   25  C25 UNL     1      30.913  30.967  38.070  1.00  0.00     0.016 C 
HETATM   26  C29 UNL     1      33.249  28.671  43.597  1.00  0.00     0.018 C 
HETATM   27  C30 UNL     1      31.717  26.737  43.758  1.00  0.00     0.018 C 
ENDROOT
BRANCH  21  28
HETATM   28  C26 UNL     1      29.454  29.200  33.674  1.00  0.00    -0.089 C 
HETATM   29  C27 UNL     1      30.280  28.226  34.086  1.00  0.00     0.014 C 
HETATM   30  C28 UNL     1      29.469  29.630  32.232  1.00  0.00     0.043 C 
ENDBRANCH  21  28
BRANCH   2  31
HETATM   31  O1  UNL     1      34.410  25.959  43.097  1.00  0.00    -0.395 OA
HETATM   32  H27 UNL     1      34.988  25.343  42.621  1.00  0.00     0.210 HD
ENDBRANCH   2  31
TORSDOF 2
