REMARK  5 active torsions:
REMARK  status: ('A' for Active; 'I' for Inactive)
REMARK    1  A    between atoms: C1_1  and  N2_13 
REMARK    2  A    between atoms: C7_8  and  O3_19 
REMARK    3  A    between atoms: C8_9  and  C13_17 
REMARK    4  A    between atoms: C13_17  and  O4_21 
REMARK    5  A    between atoms: O4_21  and  C15_22 
REMARK       I    between atoms: C15_22  and  N4_24 
ROOT
HETATM    1  C1  UNL     1      30.829  27.981  36.027  1.00  0.00     0.067 A 
HETATM    2  C2  UNL     1      30.088  28.820  35.274  1.00  0.00     0.015 A 
HETATM    3  C3  UNL     1      29.152  29.810  35.897  1.00  0.00     0.201 A 
HETATM    4  C4  UNL     1      29.073  29.804  37.380  1.00  0.00     0.075 A 
HETATM    5  C5  UNL     1      29.823  28.998  38.127  1.00  0.00     0.030 A 
HETATM    6  C6  UNL     1      30.744  28.037  37.537  1.00  0.00     0.202 A 
HETATM    7  N1  UNL     1      28.245  30.610  38.154  1.00  0.00    -0.242 NA
HETATM    8  C7  UNL     1      28.532  30.384  39.608  1.00  0.00     0.163 A 
HETATM    9  C8  UNL     1      29.579  29.211  39.597  1.00  0.00     0.102 A 
HETATM   10  C9  UNL     1      28.046  32.039  37.871  1.00  0.00     0.137 C 
HETATM   11  C10 UNL     1      28.640  32.753  39.052  1.00  0.00     0.272 A 
HETATM   12  C11 UNL     1      28.992  31.752  40.094  1.00  0.00     0.305 A 
HETATM   13  C12 UNL     1      30.085  28.837  33.772  1.00  0.00     0.054 C 
HETATM   14  O1  UNL     1      31.444  27.306  38.234  1.00  0.00    -0.286 OA
HETATM   15  O2  UNL     1      28.489  30.578  35.209  1.00  0.00    -0.286 OA
HETATM   16  N3  UNL     1      30.040  32.555  39.433  1.00  0.00     0.102 N 
HETATM   17  H13 UNL     1      30.358  33.307  40.046  1.00  0.00     0.317 HD
ENDROOT
BRANCH   9  18
HETATM   18  C13 UNL     1      30.849  29.483  40.405  1.00  0.00     0.194 C 
BRANCH  18  19
HETATM   19  O4  UNL     1      30.649  29.048  41.762  1.00  0.00    -0.303 OA
BRANCH  19  20
HETATM   20  C15 UNL     1      31.639  28.264  42.246  1.00  0.00     0.358 C 
HETATM   21  O5  UNL     1      31.773  27.886  43.396  1.00  0.00    -0.239 OA
HETATM   22  N4  UNL     1      32.501  27.950  41.252  1.00  0.00    -0.346 N 
HETATM   23  H17 UNL     1      33.364  27.497  41.517  1.00  0.00     0.161 HD
HETATM   24  H18 UNL     1      32.453  28.458  40.383  1.00  0.00     0.161 HD
ENDBRANCH  19  20
ENDBRANCH  18  19
ENDBRANCH   9  18
BRANCH   8  25
HETATM   25  O3  UNL     1      27.276  30.046  40.197  1.00  0.00    -0.367 OA
HETATM   26  C14 UNL     1      26.887  30.809  41.326  1.00  0.00     0.204 C 
ENDBRANCH   8  25
BRANCH   1  27
HETATM   27  N2  UNL     1      31.717  27.031  35.530  1.00  0.00    -0.299 NA
HETATM   28  H6  UNL     1      31.681  26.928  34.520  1.00  0.00     0.124 HD
HETATM   29  H7  UNL     1      32.668  27.222  35.861  1.00  0.00     0.124 HD
ENDBRANCH   1  27
TORSDOF 5
