REMARK  2 active torsions:
REMARK  status: ('A' for Active; 'I' for Inactive)
REMARK    1  A    between atoms: C4_4  and  O4_17 
REMARK    2  A    between atoms: C10_11  and  O2_15 
ROOT
HETATM    1  C1  UNL     1      29.902  30.053  39.016  1.00  0.00     0.023 A 
HETATM    2  C2  UNL     1      29.787  30.661  37.781  1.00  0.00     0.084 A 
HETATM    3  C3  UNL     1      30.018  29.977  36.602  1.00  0.00     0.075 A 
HETATM    4  C4  UNL     1      30.383  28.626  36.667  1.00  0.00     0.087 A 
HETATM    5  C5  UNL     1      30.509  27.999  37.933  1.00  0.00     0.083 A 
HETATM    6  C6  UNL     1      30.269  28.720  39.111  1.00  0.00     0.103 A 
HETATM    7  C7  UNL     1      30.894  26.574  38.089  1.00  0.00     0.203 A 
HETATM    8  C8  UNL     1      30.988  26.040  39.456  1.00  0.00     0.082 A 
HETATM    9  C9  UNL     1      30.720  26.890  40.522  1.00  0.00     0.093 A 
HETATM   10  O1  UNL     1      30.371  28.207  40.378  1.00  0.00    -0.308 OA
HETATM   11  C10 UNL     1      31.340  24.707  39.702  1.00  0.00     0.082 A 
HETATM   12  C11 UNL     1      31.422  24.229  41.008  1.00  0.00     0.037 A 
HETATM   13  C12 UNL     1      31.152  25.084  42.076  1.00  0.00     0.006 A 
HETATM   14  C13 UNL     1      30.802  26.413  41.833  1.00  0.00     0.038 A 
HETATM   15  O3  UNL     1      31.137  25.819  37.154  1.00  0.00    -0.286 OA
HETATM   16  C15 UNL     1      29.597  31.032  40.086  1.00  0.00     0.105 A 
HETATM   17  C16 UNL     1      29.278  32.285  39.235  1.00  0.00     0.284 A 
HETATM   18  O5  UNL     1      29.426  31.980  37.826  1.00  0.00    -0.318 OA
HETATM   19  C17 UNL     1      28.317  30.825  40.802  1.00  0.00     0.012 A 
HETATM   20  C18 UNL     1      27.470  31.786  40.454  1.00  0.00     0.135 A 
HETATM   21  O6  UNL     1      27.926  32.708  39.538  1.00  0.00    -0.331 OA
ENDROOT
BRANCH   4  22
HETATM   22  O4  UNL     1      30.635  27.864  35.558  1.00  0.00    -0.355 OA
HETATM   23  C14 UNL     1      30.165  28.325  34.298  1.00  0.00     0.210 C 
ENDBRANCH   4  22
BRANCH  11  24
HETATM   24  O2  UNL     1      31.618  23.813  38.703  1.00  0.00    -0.360 OA
HETATM   25  H5  UNL     1      31.760  22.933  39.124  1.00  0.00     0.217 HD
ENDBRANCH  11  24
TORSDOF 2
