REMARK  6 active torsions:
REMARK  status: ('A' for Active; 'I' for Inactive)
REMARK    1  A    between atoms: C3_3  and  C7_9 
REMARK    2  A    between atoms: C7_9  and  C8_10 
REMARK    3  A    between atoms: C7_9  and  C9_11 
REMARK    4  A    between atoms: C7_9  and  O1_12 
REMARK    5  A    between atoms: C8_10  and  N4_18 
REMARK    6  A    between atoms: C9_11  and  N1_14 
ROOT
HETATM    1  C7  UNL     1      32.198  27.212  41.398  1.00  0.00     0.124 C 
ENDROOT
BRANCH   1   2
HETATM    2  C3  UNL     1      33.291  27.278  42.473  1.00  0.00     0.018 A 
HETATM    3  C2  UNL     1      33.406  28.369  43.353  1.00  0.00     0.016 A 
HETATM    4  C1  UNL     1      34.425  28.413  44.309  1.00  0.00     0.043 A 
HETATM    5  C6  UNL     1      35.337  27.368  44.394  1.00  0.00     0.119 A 
HETATM    6  C5  UNL     1      35.251  26.277  43.545  1.00  0.00     0.085 A 
HETATM    7  F1  UNL     1      36.309  27.414  45.314  1.00  0.00    -0.206 F 
HETATM    8  C4  UNL     1      34.235  26.243  42.597  1.00  0.00     0.128 A 
HETATM    9  F2  UNL     1      34.156  25.175  41.789  1.00  0.00    -0.205 F 
ENDBRANCH   1   2
BRANCH   1  10
HETATM   10  C8  UNL     1      31.393  28.544  41.431  1.00  0.00     0.197 C 
BRANCH  10  11
HETATM   11  N4  UNL     1      30.545  28.749  40.274  1.00  0.00    -0.259 N 
HETATM   12  C12 UNL     1      29.191  28.670  40.203  1.00  0.00     0.230 A 
HETATM   13  N5  UNL     1      28.808  28.909  38.972  1.00  0.00    -0.234 NA
HETATM   14  C13 UNL     1      29.982  29.144  38.317  1.00  0.00     0.256 A 
HETATM   15  N6  UNL     1      31.081  29.042  39.072  1.00  0.00    -0.165 NA
ENDBRANCH  10  11
ENDBRANCH   1  10
BRANCH   1  16
HETATM   16  C9  UNL     1      31.269  25.984  41.573  1.00  0.00     0.197 C 
BRANCH  16  17
HETATM   17  N1  UNL     1      31.205  25.120  40.409  1.00  0.00    -0.259 N 
HETATM   18  C10 UNL     1      31.644  23.839  40.288  1.00  0.00     0.230 A 
HETATM   19  N3  UNL     1      31.444  23.422  39.059  1.00  0.00    -0.234 NA
HETATM   20  C11 UNL     1      30.877  24.508  38.456  1.00  0.00     0.256 A 
HETATM   21  N2  UNL     1      30.719  25.579  39.240  1.00  0.00    -0.165 NA
ENDBRANCH  16  17
ENDBRANCH   1  16
BRANCH   1  22
HETATM   22  O1  UNL     1      32.838  27.108  40.104  1.00  0.00    -0.381 OA
HETATM   23  H8  UNL     1      32.197  26.678  39.492  1.00  0.00     0.211 HD
ENDBRANCH   1  22
TORSDOF 6
