REMARK  15 active torsions:
REMARK  status: ('A' for Active; 'I' for Inactive)
REMARK    1  A    between atoms: C2_2  and  O2_8 
REMARK    2  A    between atoms: C3_3  and  C7_9 
REMARK    3  A    between atoms: C4_4  and  C6_7 
REMARK    4  A    between atoms: C5_5  and  O1_6 
REMARK    5  A    between atoms: C6_7  and  C8_10 
REMARK    6  A    between atoms: C9_11  and  C10_12 
REMARK    7  A    between atoms: C10_12  and  C11_13 
REMARK    8  A    between atoms: C11_13  and  C12_14 
REMARK    9  A    between atoms: C12_14  and  C22_27 
REMARK   10  A    between atoms: C13_15  and  C14_16 
REMARK   11  A    between atoms: C14_16  and  C15_17 
REMARK   12  A    between atoms: C15_17  and  O3_20 
REMARK   13  A    between atoms: O3_20  and  C16_21 
REMARK   14  A    between atoms: C22_27  and  O5_29 
REMARK   15  A    between atoms: O5_29  and  C23_30 
ROOT
HETATM    1  C1  UNL     1      31.686  25.850  40.608  1.00  0.00     0.064 C 
HETATM    2  C2  UNL     1      30.596  26.486  41.475  1.00  0.00     0.128 C 
HETATM    3  C3  UNL     1      31.031  27.949  41.712  1.00  0.00     0.043 C 
HETATM    4  C4  UNL     1      32.580  27.867  41.676  1.00  0.00     0.028 C 
HETATM    5  C5  UNL     1      32.810  26.890  40.509  1.00  0.00     0.125 C 
ENDROOT
BRANCH   3   6
HETATM    6  C7  UNL     1      30.540  28.984  40.713  1.00  0.00    -0.017 C 
HETATM    7  C13 UNL     1      29.584  29.917  40.873  1.00  0.00     0.049 C 
BRANCH   7   8
HETATM    8  C14 UNL     1      29.139  30.896  39.816  1.00  0.00     0.283 C 
HETATM    9  F1  UNL     1      28.021  31.568  40.215  1.00  0.00    -0.199 F 
HETATM   10  F2  UNL     1      30.092  31.851  39.661  1.00  0.00    -0.199 F 
BRANCH   8  11
HETATM   11  C15 UNL     1      28.845  30.252  38.455  1.00  0.00     0.259 C 
BRANCH  11  12
HETATM   12  O3  UNL     1      29.986  30.331  37.596  1.00  0.00    -0.345 OA
BRANCH  12  13
HETATM   13  C16 UNL     1      30.296  29.224  36.858  1.00  0.00     0.069 A 
HETATM   14  C17 UNL     1      30.219  29.108  35.469  1.00  0.00     0.037 A 
HETATM   15  C18 UNL     1      30.556  27.902  34.843  1.00  0.00     0.003 A 
HETATM   16  C19 UNL     1      30.972  26.812  35.603  1.00  0.00     0.000 A 
HETATM   17  C20 UNL     1      31.051  26.924  36.988  1.00  0.00     0.003 A 
HETATM   18  C21 UNL     1      30.712  28.126  37.612  1.00  0.00     0.037 A 
ENDBRANCH  12  13
ENDBRANCH  11  12
ENDBRANCH   8  11
ENDBRANCH   7   8
ENDBRANCH   3   6
BRANCH   2  19
HETATM   19  O2  UNL     1      30.525  25.813  42.735  1.00  0.00    -0.395 OA
HETATM   20  H10 UNL     1      29.873  25.093  42.644  1.00  0.00     0.210 HD
ENDBRANCH   2  19
BRANCH   4  21
HETATM   21  C6  UNL     1      33.171  27.385  43.020  1.00  0.00     0.034 C 
BRANCH  21  22
HETATM   22  C8  UNL     1      33.656  28.532  43.873  1.00  0.00    -0.030 C 
HETATM   23  C9  UNL     1      34.724  28.559  44.690  1.00  0.00    -0.031 C 
BRANCH  23  24
HETATM   24  C10 UNL     1      35.728  27.471  44.949  1.00  0.00     0.027 C 
BRANCH  24  25
HETATM   25  C11 UNL     1      37.204  27.810  44.738  1.00  0.00     0.013 C 
BRANCH  25  26
HETATM   26  C12 UNL     1      37.623  28.166  43.315  1.00  0.00     0.111 C 
BRANCH  26  27
HETATM   27  C22 UNL     1      37.134  27.194  42.275  1.00  0.00     0.258 C 
HETATM   28  O4  UNL     1      36.420  27.469  41.318  1.00  0.00    -0.265 OA
BRANCH  27  29
HETATM   29  O5  UNL     1      37.604  25.948  42.574  1.00  0.00    -0.322 OA
BRANCH  29  30
HETATM   30  C23 UNL     1      36.660  24.870  42.425  1.00  0.00     0.174 C 
HETATM   31  C24 UNL     1      36.541  24.069  43.715  1.00  0.00     0.034 C 
ENDBRANCH  29  30
ENDBRANCH  27  29
ENDBRANCH  26  27
ENDBRANCH  25  26
ENDBRANCH  24  25
ENDBRANCH  23  24
ENDBRANCH  21  22
ENDBRANCH   4  21
BRANCH   5  32
HETATM   32  O1  UNL     1      34.072  26.249  40.512  1.00  0.00    -0.395 OA
HETATM   33  H7  UNL     1      34.762  26.939  40.509  1.00  0.00     0.210 HD
ENDBRANCH   5  32
TORSDOF 15
