REMARK  7 active torsions:
REMARK  status: ('A' for Active; 'I' for Inactive)
REMARK    1  A    between atoms: C1_1  and  C10_11 
REMARK    2  A    between atoms: N1_7  and  C13_14 
REMARK    3  A    between atoms: C8_9  and  C18_20 
REMARK    4  A    between atoms: C13_14  and  C14_15 
REMARK    5  A    between atoms: C14_15  and  C15_16 
REMARK    6  A    between atoms: C15_16  and  C16_17 
REMARK       I    between atoms: C18_20  and  N2_21 
REMARK    7  A    between atoms: N2_21  and  C19_23 
ROOT
HETATM    1  C1  UNL     1      29.282  29.767  35.568  1.00  0.00    -0.054 A 
HETATM    2  C2  UNL     1      28.678  30.804  36.287  1.00  0.00     0.010 A 
HETATM    3  C3  UNL     1      28.913  30.966  37.661  1.00  0.00     0.031 A 
HETATM    4  C4  UNL     1      29.761  30.103  38.372  1.00  0.00     0.048 A 
HETATM    5  C5  UNL     1      30.360  29.059  37.637  1.00  0.00     0.042 A 
HETATM    6  C6  UNL     1      30.127  28.893  36.260  1.00  0.00     0.025 A 
HETATM    7  N1  UNL     1      30.034  30.232  39.752  1.00  0.00    -0.355 N 
HETATM    8  C7  UNL     1      30.852  29.293  40.366  1.00  0.00     0.112 A 
HETATM    9  C8  UNL     1      31.474  28.259  39.779  1.00  0.00     0.098 A 
HETATM   10  C9  UNL     1      31.261  28.095  38.322  1.00  0.00     0.201 A 
HETATM   11  O1  UNL     1      31.804  27.189  37.693  1.00  0.00    -0.286 OA
ENDROOT
BRANCH   9  12
HETATM   12  C18 UNL     1      32.322  27.367  40.625  1.00  0.00     0.257 C 
HETATM   13  N2  UNL     1      33.463  27.949  41.120  1.00  0.00    -0.347 N 
HETATM   14  H23 UNL     1      33.650  28.908  40.824  1.00  0.00     0.163 HD
HETATM   15  O2  UNL     1      31.996  26.205  40.850  1.00  0.00    -0.267 OA
BRANCH  13  16
HETATM   16  C19 UNL     1      34.483  27.278  41.928  1.00  0.00     0.034 C 
HETATM   17  C20 UNL     1      35.317  28.363  42.664  1.00  0.00     0.035 C 
HETATM   18  C21 UNL     1      36.416  27.723  43.527  1.00  0.00    -0.012 C 
HETATM   19  C22 UNL     1      35.766  26.797  44.568  1.00  0.00     0.009 C 
HETATM   20  C28 UNL     1      37.348  26.897  42.625  1.00  0.00     0.009 C 
HETATM   21  C23 UNL     1      34.955  25.700  43.860  1.00  0.00    -0.012 C 
HETATM   22  C24 UNL     1      33.857  26.353  43.002  1.00  0.00     0.035 C 
HETATM   23  C27 UNL     1      35.890  24.884  42.952  1.00  0.00     0.009 C 
HETATM   24  C26 UNL     1      36.546  25.800  41.906  1.00  0.00    -0.012 C 
HETATM   25  C25 UNL     1      35.449  26.452  41.044  1.00  0.00     0.035 C 
ENDBRANCH  13  16
ENDBRANCH   9  12
BRANCH   7  26
HETATM   26  C13 UNL     1      29.417  31.316  40.540  1.00  0.00     0.128 C 
BRANCH  26  27
HETATM   27  C14 UNL     1      28.350  30.760  41.487  1.00  0.00     0.020 C 
BRANCH  27  28
HETATM   28  C15 UNL     1      26.934  31.237  41.151  1.00  0.00     0.001 C 
BRANCH  28  29
HETATM   29  C16 UNL     1      26.048  30.144  40.554  1.00  0.00    -0.004 C 
HETATM   30  C17 UNL     1      25.697  30.444  39.104  1.00  0.00     0.005 C 
ENDBRANCH  28  29
ENDBRANCH  27  28
ENDBRANCH  26  27
ENDBRANCH   7  26
BRANCH   1  31
HETATM   31  C10 UNL     1      29.044  29.575  34.081  1.00  0.00     0.010 C 
HETATM   32  C11 UNL     1      27.565  29.747  33.725  1.00  0.00     0.015 C 
HETATM   33  C12 UNL     1      29.570  28.222  33.595  1.00  0.00     0.015 C 
ENDBRANCH   1  31
TORSDOF 7
