REMARK  6 active torsions:
REMARK  status: ('A' for Active; 'I' for Inactive)
REMARK    1  A    between atoms: N1_7  and  C10_11 
REMARK    2  A    between atoms: C8_9  and  C9_10 
REMARK    3  A    between atoms: C9_10  and  C15_17 
REMARK    4  A    between atoms: C10_11  and  C11_12 
REMARK    5  A    between atoms: C11_12  and  C12_13 
REMARK    6  A    between atoms: C12_13  and  C13_14 
ROOT
HETATM    1  C1  UNL     1      30.223  25.956  37.939  1.00  0.00     0.001 A 
HETATM    2  C2  UNL     1      30.913  25.033  38.713  1.00  0.00     0.002 A 
HETATM    3  C3  UNL     1      31.369  25.371  39.987  1.00  0.00     0.030 A 
HETATM    4  C4  UNL     1      31.117  26.669  40.465  1.00  0.00     0.045 A 
HETATM    5  C5  UNL     1      30.431  27.627  39.705  1.00  0.00     0.006 A 
HETATM    6  C6  UNL     1      29.973  27.245  38.423  1.00  0.00     0.015 A 
HETATM    7  N1  UNL     1      31.430  27.256  41.672  1.00  0.00    -0.352 N 
HETATM    8  C7  UNL     1      30.969  28.542  41.701  1.00  0.00     0.107 A 
HETATM    9  C8  UNL     1      30.354  28.828  40.493  1.00  0.00     0.043 A 
ENDROOT
BRANCH   9  10
HETATM   10  C9  UNL     1      29.767  30.138  40.209  1.00  0.00     0.195 C 
HETATM   11  O1  UNL     1      30.429  31.173  40.203  1.00  0.00    -0.287 OA
BRANCH  10  12
HETATM   12  C15 UNL     1      28.332  30.226  39.874  1.00  0.00     0.026 A 
HETATM   13  C16 UNL     1      27.424  30.071  40.926  1.00  0.00     0.017 A 
HETATM   14  C17 UNL     1      26.061  30.144  40.674  1.00  0.00     0.009 A 
HETATM   15  C18 UNL     1      25.588  30.366  39.372  1.00  0.00    -0.051 A 
HETATM   16  C19 UNL     1      26.504  30.514  38.291  1.00  0.00    -0.019 A 
HETATM   17  C25 UNL     1      24.096  30.437  39.162  1.00  0.00     0.049 C 
HETATM   18  C20 UNL     1      27.901  30.436  38.542  1.00  0.00    -0.011 A 
HETATM   19  C21 UNL     1      26.078  30.739  36.961  1.00  0.00     0.013 A 
HETATM   20  C24 UNL     1      28.797  30.586  37.456  1.00  0.00     0.013 A 
HETATM   21  C23 UNL     1      28.344  30.806  36.156  1.00  0.00     0.001 A 
HETATM   22  C22 UNL     1      26.983  30.884  35.909  1.00  0.00     0.001 A 
ENDBRANCH  10  12
ENDBRANCH   9  10
BRANCH   7  23
HETATM   23  C10 UNL     1      32.165  26.634  42.766  1.00  0.00     0.165 C 
BRANCH  23  24
HETATM   24  C11 UNL     1      33.644  27.010  42.756  1.00  0.00     0.188 C 
HETATM   25  F1  UNL     1      33.856  27.969  43.704  1.00  0.00    -0.248 F 
BRANCH  24  26
HETATM   26  C12 UNL     1      34.524  25.810  43.109  1.00  0.00     0.038 C 
BRANCH  26  27
HETATM   27  C13 UNL     1      35.884  25.891  42.413  1.00  0.00    -0.002 C 
HETATM   28  C14 UNL     1      35.758  26.464  41.010  1.00  0.00     0.005 C 
ENDBRANCH  26  27
ENDBRANCH  24  26
ENDBRANCH  23  24
ENDBRANCH   7  23
TORSDOF 6
