REMARK  10 active torsions:
REMARK  status: ('A' for Active; 'I' for Inactive)
REMARK    1  A    between atoms: C14_14  and  O8_34 
REMARK    2  A    between atoms: C17_17  and  C18_19 
REMARK    3  A    between atoms: C17_17  and  O7_33 
REMARK    4  A    between atoms: C18_19  and  C19_20 
REMARK    5  A    between atoms: C19_20  and  O2_21 
REMARK    6  A    between atoms: O2_21  and  C22_25 
REMARK    7  A    between atoms: C22_25  and  C23_26 
REMARK    8  A    between atoms: C23_26  and  C24_28 
REMARK    9  A    between atoms: C24_28  and  C25_29 
REMARK   10  A    between atoms: C25_29  and  O6_31 
ROOT
HETATM    1  C1  UNL     1      35.106  26.394  41.136  1.00  0.00     0.052 A 
HETATM    2  C2  UNL     1      35.328  26.981  42.468  1.00  0.00     0.172 A 
HETATM    3  C3  UNL     1      34.143  27.490  43.192  1.00  0.00     0.059 A 
HETATM    4  C4  UNL     1      32.895  27.424  42.687  1.00  0.00    -0.060 A 
HETATM    5  C5  UNL     1      32.597  26.804  41.301  1.00  0.00     0.004 A 
HETATM    6  C6  UNL     1      33.874  26.322  40.620  1.00  0.00    -0.009 A 
HETATM    7  C7  UNL     1      31.676  27.988  43.413  1.00  0.00     0.012 C 
HETATM    8  C8  UNL     1      31.023  29.063  42.533  1.00  0.00     0.014 C 
HETATM    9  C9  UNL     1      30.660  28.542  41.131  1.00  0.00    -0.001 C 
HETATM   10  C10 UNL     1      31.912  27.924  40.425  1.00  0.00     0.035 C 
HETATM   11  C11 UNL     1      30.109  29.684  40.263  1.00  0.00     0.002 C 
HETATM   12  C12 UNL     1      29.667  29.248  38.846  1.00  0.00     0.001 C 
HETATM   13  C13 UNL     1      30.908  28.666  38.139  1.00  0.00     0.045 C 
HETATM   14  C14 UNL     1      31.627  27.554  38.937  1.00  0.00     0.124 C 
HETATM   15  C15 UNL     1      28.915  30.482  40.770  1.00  0.00     0.009 C 
HETATM   16  C16 UNL     1      28.371  31.196  39.517  1.00  0.00     0.047 C 
HETATM   17  C17 UNL     1      29.153  30.627  38.300  1.00  0.00     0.128 C 
HETATM   18  O1  UNL     1      36.450  27.048  42.957  1.00  0.00    -0.289 OA
HETATM   19  C20 UNL     1      31.725  25.543  41.513  1.00  0.00     0.025 C 
HETATM   20  C21 UNL     1      28.503  28.219  38.869  1.00  0.00     0.019 C 
HETATM   21  C26 UNL     1      31.927  28.565  44.812  1.00  0.00     0.015 C 
ENDROOT
BRANCH  17  22
HETATM   22  C18 UNL     1      28.290  30.568  37.016  1.00  0.00     0.185 C 
HETATM   23  O3  UNL     1      27.075  30.770  37.040  1.00  0.00    -0.292 OA
BRANCH  22  24
HETATM   24  C19 UNL     1      28.985  30.264  35.685  1.00  0.00     0.260 C 
BRANCH  24  25
HETATM   25  O2  UNL     1      28.190  30.215  34.507  1.00  0.00    -0.314 OA
BRANCH  25  26
HETATM   26  C22 UNL     1      28.641  29.358  33.550  1.00  0.00     0.259 C 
HETATM   27  O4  UNL     1      28.001  29.008  32.566  1.00  0.00    -0.265 OA
BRANCH  26  28
HETATM   28  C23 UNL     1      30.008  28.837  33.918  1.00  0.00     0.121 C 
BRANCH  28  29
HETATM   29  C24 UNL     1      30.035  27.313  33.962  1.00  0.00     0.119 C 
BRANCH  29  30
HETATM   30  C25 UNL     1      30.909  26.765  35.058  1.00  0.00     0.139 C 
HETATM   31  O5  UNL     1      30.567  25.943  35.892  1.00  0.00    -0.650 OA
BRANCH  30  32
HETATM   32  O6  UNL     1      32.175  27.217  35.031  1.00  0.00    -0.776 OA
HETATM   33  H29 UNL     1      32.657  26.617  35.645  1.00  0.00     0.167 HD
ENDBRANCH  30  32
ENDBRANCH  29  30
ENDBRANCH  28  29
ENDBRANCH  26  28
ENDBRANCH  25  26
ENDBRANCH  24  25
ENDBRANCH  22  24
ENDBRANCH  17  22
BRANCH  17  34
HETATM   34  O7  UNL     1      30.260  31.506  38.074  1.00  0.00    -0.381 OA
HETATM   35  H33 UNL     1      31.039  31.144  38.550  1.00  0.00     0.211 HD
ENDBRANCH  17  34
BRANCH  14  36
HETATM   36  O8  UNL     1      30.928  26.326  38.792  1.00  0.00    -0.395 OA
HETATM   37  H34 UNL     1      30.595  26.248  37.885  1.00  0.00     0.210 HD
ENDBRANCH  14  36
TORSDOF 10
