REMARK  6 active torsions:
REMARK  status: ('A' for Active; 'I' for Inactive)
REMARK    1  A    between atoms: C1_1  and  C6_7 
REMARK       I    between atoms: N1_4  and  C7_8 
REMARK    2  A    between atoms: C7_8  and  C8_9 
REMARK    3  A    between atoms: C8_9  and  C11_15 
REMARK    4  A    between atoms: C11_15  and  C12_16 
REMARK    5  A    between atoms: C12_16  and  C13_17 
REMARK    6  A    between atoms: C13_17  and  C14_18 
ROOT
HETATM    1  C1  UNL     1      29.719  30.030  39.086  1.00  0.00     0.040 C 
HETATM    2  C2  UNL     1      29.068  29.352  40.309  1.00  0.00     0.030 C 
HETATM    3  C3  UNL     1      28.801  27.863  40.094  1.00  0.00     0.126 C 
HETATM    4  N1  UNL     1      30.021  27.206  39.637  1.00  0.00    -0.352 N 
HETATM    5  C4  UNL     1      30.520  27.706  38.360  1.00  0.00     0.126 C 
HETATM    6  C5  UNL     1      30.864  29.191  38.485  1.00  0.00     0.030 C 
HETATM    7  C7  UNL     1      30.873  26.448  40.437  1.00  0.00     0.219 C 
HETATM    8  O1  UNL     1      31.985  26.091  40.047  1.00  0.00    -0.273 OA
ENDROOT
BRANCH   7   9
HETATM    9  C8  UNL     1      30.354  26.066  41.817  1.00  0.00     0.103 C 
BRANCH   9  10
HETATM   10  C11 UNL     1      31.347  26.334  42.952  1.00  0.00     0.009 C 
BRANCH  10  11
HETATM   11  C12 UNL     1      31.688  27.810  43.176  1.00  0.00     0.001 C 
BRANCH  11  12
HETATM   12  C13 UNL     1      33.172  28.179  43.306  1.00  0.00     0.004 C 
BRANCH  12  13
HETATM   13  C14 UNL     1      34.157  27.014  43.072  1.00  0.00    -0.014 C 
HETATM   14  C15 UNL     1      34.755  27.108  41.650  1.00  0.00     0.004 C 
HETATM   15  C16 UNL     1      36.073  26.349  41.472  1.00  0.00     0.000 C 
HETATM   16  C17 UNL     1      36.228  25.221  42.479  1.00  0.00     0.000 C 
HETATM   17  C18 UNL     1      36.187  25.741  43.916  1.00  0.00     0.000 C 
HETATM   18  C19 UNL     1      35.300  26.977  44.096  1.00  0.00     0.004 C 
ENDBRANCH  12  13
ENDBRANCH  11  12
ENDBRANCH  10  11
ENDBRANCH   9  10
ENDBRANCH   7   9
BRANCH   1  19
HETATM   19  C6  UNL     1      28.706  30.438  38.055  1.00  0.00     0.032 A 
HETATM   20  N2  UNL     1      29.063  30.750  36.762  1.00  0.00    -0.353 N 
HETATM   21  C9  UNL     1      27.929  31.081  36.080  1.00  0.00     0.207 A 
HETATM   22  H12 UNL     1      29.998  30.737  36.377  1.00  0.00     0.166 HD
HETATM   23  N3  UNL     1      26.868  31.001  36.847  1.00  0.00    -0.254 NA
HETATM   24  C10 UNL     1      27.335  30.600  38.071  1.00  0.00     0.143 A 
ENDBRANCH   1  19
TORSDOF 6
