REMARK  13 active torsions:
REMARK  status: ('A' for Active; 'I' for Inactive)
REMARK    1  A    between atoms: C3_3  and  C6_8 
REMARK    2  A    between atoms: C4_4  and  O2_7 
REMARK    3  A    between atoms: C6_8  and  C7_9 
REMARK    4  A    between atoms: C8_10  and  C9_11 
REMARK    5  A    between atoms: C9_11  and  C10_12 
REMARK    6  A    between atoms: C10_12  and  C11_13 
REMARK    7  A    between atoms: C11_13  and  C12_14 
REMARK    8  A    between atoms: C12_14  and  O3_23 
REMARK    9  A    between atoms: C13_15  and  C14_16 
REMARK   10  A    between atoms: C15_17  and  C16_18 
REMARK   11  A    between atoms: C16_18  and  C17_19 
REMARK   12  A    between atoms: C17_19  and  C18_20 
REMARK   13  A    between atoms: C18_20  and  C19_21 
ROOT
HETATM    1  C1  UNL     1      31.122  24.486  38.975  1.00  0.00     0.158 C 
HETATM    2  C2  UNL     1      31.302  25.523  40.051  1.00  0.00    -0.005 C 
HETATM    3  C3  UNL     1      30.496  26.724  39.599  1.00  0.00     0.055 C 
HETATM    4  C4  UNL     1      30.530  26.559  38.061  1.00  0.00     0.134 C 
HETATM    5  C5  UNL     1      30.424  25.065  37.781  1.00  0.00     0.116 C 
HETATM    6  O1  UNL     1      31.481  23.323  39.066  1.00  0.00    -0.293 OA
HETATM    7  C13 UNL     1      32.106  25.218  41.081  1.00  0.00     0.011 C 
ENDROOT
BRANCH   3   8
HETATM    8  C6  UNL     1      30.931  28.140  40.019  1.00  0.00     0.038 C 
BRANCH   8   9
HETATM    9  C7  UNL     1      29.854  28.846  40.808  1.00  0.00    -0.030 C 
HETATM   10  C8  UNL     1      28.738  29.413  40.321  1.00  0.00    -0.031 C 
BRANCH  10  11
HETATM   11  C9  UNL     1      28.286  29.444  38.889  1.00  0.00     0.027 C 
BRANCH  11  12
HETATM   12  C10 UNL     1      28.398  30.820  38.225  1.00  0.00     0.014 C 
BRANCH  12  13
HETATM   13  C11 UNL     1      29.822  31.369  38.152  1.00  0.00     0.110 C 
BRANCH  13  14
HETATM   14  C12 UNL     1      30.049  32.562  39.037  1.00  0.00     0.139 C 
HETATM   15  O4  UNL     1      29.468  32.804  40.082  1.00  0.00    -0.650 OA
BRANCH  14  16
HETATM   16  O3  UNL     1      30.967  33.417  38.546  1.00  0.00    -0.776 OA
HETATM   17  H30 UNL     1      31.478  33.694  39.335  1.00  0.00     0.167 HD
ENDBRANCH  14  16
ENDBRANCH  13  14
ENDBRANCH  12  13
ENDBRANCH  11  12
ENDBRANCH  10  11
ENDBRANCH   8   9
ENDBRANCH   3   8
BRANCH   4  18
HETATM   18  O2  UNL     1      31.722  27.090  37.477  1.00  0.00    -0.394 OA
HETATM   19  H5  UNL     1      32.236  26.368  37.071  1.00  0.00     0.210 HD
ENDBRANCH   4  18
BRANCH   7  20
HETATM   20  C14 UNL     1      32.453  26.037  42.218  1.00  0.00    -0.003 C 
HETATM   21  C15 UNL     1      33.502  26.874  42.211  1.00  0.00    -0.027 C 
BRANCH  21  22
HETATM   22  C16 UNL     1      33.892  27.732  43.385  1.00  0.00     0.027 C 
BRANCH  22  23
HETATM   23  C17 UNL     1      35.405  27.781  43.624  1.00  0.00     0.004 C 
BRANCH  23  24
HETATM   24  C18 UNL     1      35.945  26.722  44.594  1.00  0.00    -0.000 C 
BRANCH  24  25
HETATM   25  C19 UNL     1      36.117  25.333  43.984  1.00  0.00    -0.005 C 
HETATM   26  C20 UNL     1      36.855  25.399  42.655  1.00  0.00     0.005 C 
ENDBRANCH  24  25
ENDBRANCH  23  24
ENDBRANCH  22  23
ENDBRANCH  21  22
ENDBRANCH   7  20
TORSDOF 13
