REMARK  7 active torsions:
REMARK  status: ('A' for Active; 'I' for Inactive)
REMARK    1  A    between atoms: C4_4  and  C13_17 
REMARK    2  A    between atoms: C6_6  and  N1_7 
REMARK    3  A    between atoms: N1_7  and  S1_8 
REMARK    4  A    between atoms: S1_8  and  C7_9 
REMARK    5  A    between atoms: C14_18  and  C15_19 
REMARK    6  A    between atoms: C16_20  and  C17_21 
REMARK       I    between atoms: C17_21  and  N2_22 
REMARK    7  A    between atoms: N2_22  and  O4_24 
ROOT
HETATM    1  C1  UNL     1      31.385  24.332  41.254  1.00  0.00     0.030 A 
HETATM    2  C2  UNL     1      31.452  23.540  40.107  1.00  0.00     0.004 A 
HETATM    3  C3  UNL     1      31.251  24.116  38.851  1.00  0.00     0.021 A 
HETATM    4  C4  UNL     1      30.986  25.484  38.742  1.00  0.00     0.020 A 
HETATM    5  C5  UNL     1      30.915  26.277  39.890  1.00  0.00     0.050 A 
HETATM    6  C6  UNL     1      31.109  25.695  41.143  1.00  0.00     0.044 A 
ENDROOT
BRANCH   6   7
HETATM    7  N1  UNL     1      31.084  26.502  42.314  1.00  0.00    -0.281 N 
HETATM    8  H5  UNL     1      30.174  26.809  42.655  1.00  0.00     0.179 HD
BRANCH   7   9
HETATM    9  S1  UNL     1      32.207  27.764  42.424  1.00  0.00     0.263 S 
HETATM   10  O1  UNL     1      32.104  28.270  43.777  1.00  0.00    -0.200 OA
HETATM   11  O2  UNL     1      32.054  28.648  41.288  1.00  0.00    -0.200 OA
BRANCH   9  12
HETATM   12  C7  UNL     1      33.761  26.918  42.291  1.00  0.00     0.079 A 
HETATM   13  C8  UNL     1      34.253  26.208  43.391  1.00  0.00     0.025 A 
HETATM   14  C9  UNL     1      35.483  25.557  43.291  1.00  0.00     0.002 A 
HETATM   15  C10 UNL     1      36.214  25.622  42.103  1.00  0.00     0.000 A 
HETATM   16  C11 UNL     1      35.724  26.343  41.012  1.00  0.00     0.002 A 
HETATM   17  C12 UNL     1      34.497  26.998  41.104  1.00  0.00     0.025 A 
ENDBRANCH   9  12
ENDBRANCH   7   9
ENDBRANCH   6   7
BRANCH   4  18
HETATM   18  C13 UNL     1      30.801  26.075  37.453  1.00  0.00    -0.062 C 
HETATM   19  C14 UNL     1      30.640  26.579  36.374  1.00  0.00    -0.073 C 
BRANCH  19  20
HETATM   20  C15 UNL     1      30.446  27.180  35.102  1.00  0.00     0.070 C 
HETATM   21  C16 UNL     1      29.557  26.682  34.232  1.00  0.00     0.085 C 
BRANCH  21  22
HETATM   22  C17 UNL     1      29.379  27.333  32.915  1.00  0.00     0.265 C 
HETATM   23  N2  UNL     1      29.651  28.676  32.929  1.00  0.00    -0.234 N 
HETATM   24  H13 UNL     1      29.849  29.231  33.753  1.00  0.00     0.197 HD
HETATM   25  O3  UNL     1      29.011  26.739  31.907  1.00  0.00    -0.266 OA
BRANCH  23  26
HETATM   26  O4  UNL     1      29.413  29.378  31.726  1.00  0.00    -0.287 OA
HETATM   27  H14 UNL     1      28.746  30.046  32.000  1.00  0.00     0.244 HD
ENDBRANCH  23  26
ENDBRANCH  21  22
ENDBRANCH  19  20
ENDBRANCH   4  18
TORSDOF 7
