REMARK  6 active torsions:
REMARK  status: ('A' for Active; 'I' for Inactive)
REMARK    1  A    between atoms: C1_1  and  O2_11 
REMARK    2  A    between atoms: C2_2  and  O3_13 
REMARK    3  A    between atoms: C8_8  and  C12_15 
REMARK    4  A    between atoms: C12_15  and  C13_16 
REMARK    5  A    between atoms: N1_19  and  C18_22 
REMARK    6  A    between atoms: C18_22  and  C19_23 
ROOT
HETATM    1  C1  UNL     1      35.452  26.246  42.695  1.00  0.00     0.102 A 
HETATM    2  C2  UNL     1      35.243  27.256  43.676  1.00  0.00     0.102 A 
HETATM    3  C3  UNL     1      33.994  27.888  43.790  1.00  0.00     0.047 A 
HETATM    4  C4  UNL     1      32.971  27.503  42.938  1.00  0.00    -0.041 A 
HETATM    5  C5  UNL     1      33.196  26.516  41.989  1.00  0.00     0.019 A 
HETATM    6  C6  UNL     1      34.412  25.874  41.839  1.00  0.00     0.055 A 
HETATM    7  C7  UNL     1      31.587  28.067  42.854  1.00  0.00     0.052 C 
HETATM    8  C8  UNL     1      30.854  27.143  41.854  1.00  0.00     0.065 C 
HETATM    9  C9  UNL     1      31.966  26.306  41.241  1.00  0.00     0.164 C 
HETATM   10  O1  UNL     1      31.875  25.543  40.296  1.00  0.00    -0.292 OA
ENDROOT
BRANCH   8  11
HETATM   11  C12 UNL     1      30.065  27.895  40.777  1.00  0.00     0.017 C 
BRANCH  11  12
HETATM   12  C13 UNL     1      30.832  29.074  40.135  1.00  0.00    -0.010 C 
HETATM   13  C14 UNL     1      30.919  28.902  38.612  1.00  0.00     0.035 C 
HETATM   14  C15 UNL     1      29.583  29.157  37.899  1.00  0.00     0.273 C 
HETATM   15  N1  UNL     1      28.799  30.234  38.504  1.00  0.00     0.092 N 
HETATM   16  C16 UNL     1      29.594  31.172  39.281  1.00  0.00     0.273 C 
HETATM   17  C17 UNL     1      30.209  30.443  40.485  1.00  0.00     0.035 C 
BRANCH  15  18
HETATM   18  C18 UNL     1      27.809  30.840  37.612  1.00  0.00     0.311 C 
BRANCH  18  19
HETATM   19  C19 UNL     1      26.355  30.707  38.016  1.00  0.00    -0.030 A 
HETATM   20  C20 UNL     1      25.330  30.877  37.072  1.00  0.00     0.009 A 
HETATM   21  C21 UNL     1      23.991  30.751  37.443  1.00  0.00     0.001 A 
HETATM   22  C22 UNL     1      23.657  30.447  38.761  1.00  0.00     0.000 A 
HETATM   23  C23 UNL     1      24.663  30.267  39.708  1.00  0.00     0.001 A 
HETATM   24  C24 UNL     1      26.003  30.393  39.338  1.00  0.00     0.009 A 
ENDBRANCH  18  19
ENDBRANCH  15  18
ENDBRANCH  11  12
ENDBRANCH   8  11
BRANCH   2  25
HETATM   25  O3  UNL     1      36.329  27.551  44.465  1.00  0.00    -0.353 OA
HETATM   26  C11 UNL     1      36.169  27.457  45.873  1.00  0.00     0.210 C 
ENDBRANCH   2  25
BRANCH   1  27
HETATM   27  O2  UNL     1      36.710  25.693  42.665  1.00  0.00    -0.353 OA
HETATM   28  C10 UNL     1      36.832  24.318  43.004  1.00  0.00     0.210 C 
ENDBRANCH   1  27
TORSDOF 6
