REMARK  7 active torsions:
REMARK  status: ('A' for Active; 'I' for Inactive)
REMARK    1  A    between atoms: C3_3  and  O1_7 
REMARK    2  A    between atoms: C5_5  and  C13_14 
REMARK    3  A    between atoms: O1_7  and  C7_8 
REMARK    4  A    between atoms: C13_14  and  N1_15 
REMARK       I    between atoms: N2_18  and  C18_21 
REMARK    5  A    between atoms: C18_21  and  O2_22 
REMARK    6  A    between atoms: O2_22  and  C19_24 
REMARK    7  A    between atoms: C22_27  and  N3_30 
ROOT
HETATM    1  N1  UNL     1      30.699  28.955  39.076  1.00  0.00     0.095 N 
HETATM    2  C14 UNL     1      31.557  27.806  38.712  1.00  0.00     0.292 C 
HETATM    3  C15 UNL     1      31.046  26.941  37.545  1.00  0.00     0.158 C 
HETATM    4  N2  UNL     1      30.772  27.744  36.358  1.00  0.00    -0.324 N 
HETATM    5  C16 UNL     1      30.341  29.123  36.582  1.00  0.00     0.158 C 
HETATM    6  C17 UNL     1      29.758  29.319  37.994  1.00  0.00     0.292 C 
HETATM    7  C18 UNL     1      30.974  27.208  35.099  1.00  0.00     0.368 C 
HETATM    8  O3  UNL     1      31.323  26.048  34.909  1.00  0.00    -0.238 OA
ENDROOT
BRANCH   1   9
HETATM    9  C13 UNL     1      30.001  28.726  40.350  1.00  0.00     0.311 C 
BRANCH   9  10
HETATM   10  C5  UNL     1      30.763  27.825  41.298  1.00  0.00    -0.028 A 
HETATM   11  C4  UNL     1      31.799  28.336  42.092  1.00  0.00     0.046 A 
HETATM   12  C3  UNL     1      32.505  27.496  42.956  1.00  0.00     0.076 A 
HETATM   13  C2  UNL     1      32.158  26.148  43.070  1.00  0.00     0.037 A 
HETATM   14  C1  UNL     1      31.129  25.631  42.285  1.00  0.00     0.003 A 
HETATM   15  C6  UNL     1      30.438  26.463  41.402  1.00  0.00     0.009 A 
BRANCH  12  16
HETATM   16  O1  UNL     1      33.487  28.074  43.725  1.00  0.00    -0.311 OA
BRANCH  16  17
HETATM   17  C7  UNL     1      34.793  27.751  43.435  1.00  0.00     0.076 A 
HETATM   18  C8  UNL     1      35.713  27.846  44.480  1.00  0.00     0.037 A 
HETATM   19  C9  UNL     1      37.061  27.565  44.251  1.00  0.00     0.003 A 
HETATM   20  C10 UNL     1      37.490  27.204  42.973  1.00  0.00     0.000 A 
HETATM   21  C11 UNL     1      36.573  27.130  41.923  1.00  0.00     0.003 A 
HETATM   22  C12 UNL     1      35.225  27.410  42.150  1.00  0.00     0.037 A 
ENDBRANCH  16  17
ENDBRANCH  12  16
ENDBRANCH   9  10
ENDBRANCH   1   9
BRANCH   7  23
HETATM   23  O2  UNL     1      30.741  28.139  34.090  1.00  0.00    -0.261 OA
BRANCH  23  24
HETATM   24  C19 UNL     1      29.498  27.992  33.472  1.00  0.00     0.081 A 
HETATM   25  C20 UNL     1      29.053  26.715  33.131  1.00  0.00     0.040 A 
HETATM   26  C21 UNL     1      27.795  26.565  32.544  1.00  0.00     0.039 A 
HETATM   27  C22 UNL     1      26.996  27.698  32.322  1.00  0.00     0.103 A 
HETATM   28  C23 UNL     1      27.445  28.977  32.688  1.00  0.00     0.039 A 
HETATM   29  C24 UNL     1      28.704  29.121  33.274  1.00  0.00     0.040 A 
BRANCH  27  30
HETATM   30  N3  UNL     1      25.672  27.543  31.705  1.00  0.00    -0.116 N 
HETATM   31  O4  UNL     1      25.617  27.051  30.569  1.00  0.00    -0.532 OA
HETATM   32  O5  UNL     1      24.686  27.920  32.356  1.00  0.00    -0.532 OA
ENDBRANCH  27  30
ENDBRANCH  23  24
ENDBRANCH   7  23
TORSDOF 7
