REMARK  16 active torsions:
REMARK  status: ('A' for Active; 'I' for Inactive)
REMARK    1  A    between atoms: C1_1  and  C2_2 
REMARK    2  A    between atoms: C1_1  and  C4_4 
REMARK    3  A    between atoms: C1_1  and  O1_12 
REMARK    4  A    between atoms: C5_5  and  C6_6 
REMARK    5  A    between atoms: C7_7  and  C8_8 
REMARK    6  A    between atoms: C8_8  and  C9_9 
REMARK    7  A    between atoms: C10_10  and  C11_11 
REMARK    8  A    between atoms: C11_11  and  C12_13 
REMARK    9  A    between atoms: C13_14  and  C14_15 
REMARK   10  A    between atoms: C15_16  and  C16_17 
REMARK   11  A    between atoms: C16_17  and  C17_18 
REMARK   12  A    between atoms: C16_17  and  O2_21 
REMARK   13  A    between atoms: C17_18  and  C18_19 
REMARK   14  A    between atoms: C18_19  and  C19_20 
REMARK   15  A    between atoms: C19_20  and  C20_22 
REMARK   16  A    between atoms: C20_22  and  O4_24 
ROOT
HETATM    1  C12 UNL     1      31.321  24.064  39.282  1.00  0.00    -0.023 C 
HETATM    2  C13 UNL     1      30.609  24.691  38.334  1.00  0.00    -0.004 C 
ENDROOT
BRANCH   1   3
HETATM    3  C11 UNL     1      31.979  24.641  40.503  1.00  0.00     0.054 C 
BRANCH   3   4
HETATM    4  C10 UNL     1      30.976  24.861  41.600  1.00  0.00    -0.027 C 
HETATM    5  C9  UNL     1      30.625  26.026  42.173  1.00  0.00    -0.027 C 
BRANCH   5   6
HETATM    6  C8  UNL     1      31.140  27.403  41.859  1.00  0.00     0.054 C 
BRANCH   6   7
HETATM    7  C7  UNL     1      31.680  28.065  43.094  1.00  0.00    -0.023 C 
HETATM    8  C6  UNL     1      32.958  28.194  43.489  1.00  0.00    -0.004 C 
BRANCH   8   9
HETATM    9  C5  UNL     1      34.127  27.697  42.800  1.00  0.00    -0.002 C 
HETATM   10  C4  UNL     1      35.310  27.526  43.414  1.00  0.00     0.004 C 
BRANCH  10  11
HETATM   11  C1  UNL     1      36.579  27.015  42.786  1.00  0.00     0.140 C 
BRANCH  11  12
HETATM   12  C2  UNL     1      36.354  25.654  42.121  1.00  0.00     0.031 C 
HETATM   13  C3  UNL     1      36.698  24.495  43.047  1.00  0.00     0.008 C 
ENDBRANCH  11  12
BRANCH  11  14
HETATM   14  O1  UNL     1      37.071  27.936  41.821  1.00  0.00    -0.392 OA
HETATM   15  H17 UNL     1      36.379  28.608  41.700  1.00  0.00     0.210 HD
ENDBRANCH  11  14
ENDBRANCH  10  11
ENDBRANCH   8   9
ENDBRANCH   6   7
ENDBRANCH   5   6
ENDBRANCH   3   4
ENDBRANCH   1   3
BRANCH   2  16
HETATM   16  C14 UNL     1      30.327  26.104  38.264  1.00  0.00    -0.002 C 
HETATM   17  C15 UNL     1      31.210  27.000  37.792  1.00  0.00     0.004 C 
BRANCH  17  18
HETATM   18  C16 UNL     1      30.918  28.475  37.711  1.00  0.00     0.141 C 
BRANCH  18  19
HETATM   19  C17 UNL     1      29.640  28.900  38.447  1.00  0.00     0.036 C 
BRANCH  19  20
HETATM   20  C18 UNL     1      29.137  30.309  38.086  1.00  0.00     0.013 C 
BRANCH  20  21
HETATM   21  C19 UNL     1      30.268  31.332  38.035  1.00  0.00     0.110 C 
BRANCH  21  22
HETATM   22  C20 UNL     1      30.125  32.393  39.089  1.00  0.00     0.139 C 
HETATM   23  O3  UNL     1      29.491  32.296  40.126  1.00  0.00    -0.650 OA
BRANCH  22  24
HETATM   24  O4  UNL     1      30.800  33.519  38.793  1.00  0.00    -0.776 OA
HETATM   25  H30 UNL     1      30.528  33.727  37.876  1.00  0.00     0.167 HD
ENDBRANCH  22  24
ENDBRANCH  21  22
ENDBRANCH  20  21
ENDBRANCH  19  20
ENDBRANCH  18  19
BRANCH  18  26
HETATM   26  O2  UNL     1      30.829  28.869  36.346  1.00  0.00    -0.392 OA
HETATM   27  H29 UNL     1      30.511  28.104  35.836  1.00  0.00     0.210 HD
ENDBRANCH  18  26
ENDBRANCH  17  18
ENDBRANCH   2  16
TORSDOF 16
