REMARK  16 active torsions:
REMARK  status: ('A' for Active; 'I' for Inactive)
REMARK    1  A    between atoms: C1_1  and  O2_17 
REMARK    2  A    between atoms: C2_2  and  C7_7 
REMARK    3  A    between atoms: C3_3  and  C6_6 
REMARK    4  A    between atoms: C6_6  and  C16_19 
REMARK    5  A    between atoms: C8_8  and  C9_9 
REMARK    6  A    between atoms: C9_9  and  C10_10 
REMARK    7  A    between atoms: C10_10  and  C11_11 
REMARK    8  A    between atoms: C10_10  and  O1_15 
REMARK    9  A    between atoms: C11_11  and  C12_12 
REMARK   10  A    between atoms: C12_12  and  C13_13 
REMARK   11  A    between atoms: C16_19  and  C17_20 
REMARK   12  A    between atoms: C17_20  and  C18_21 
REMARK   13  A    between atoms: C18_21  and  C19_22 
REMARK   14  A    between atoms: C19_22  and  C20_23 
REMARK   15  A    between atoms: C20_23  and  C21_24 
REMARK   16  A    between atoms: C21_24  and  O5_26 
ROOT
HETATM    1  C1  UNL     1      29.872  32.295  38.649  1.00  0.00     0.133 C 
HETATM    2  C2  UNL     1      30.318  30.822  38.681  1.00  0.00     0.048 C 
HETATM    3  C3  UNL     1      29.140  30.073  39.356  1.00  0.00     0.065 C 
HETATM    4  C4  UNL     1      27.964  30.942  38.950  1.00  0.00     0.134 C 
HETATM    5  C5  UNL     1      28.373  32.275  38.385  1.00  0.00     0.111 C 
HETATM    6  O3  UNL     1      26.792  30.592  39.051  1.00  0.00    -0.297 OA
ENDROOT
BRANCH   2   7
HETATM    7  C7  UNL     1      30.656  30.176  37.349  1.00  0.00    -0.023 C 
HETATM    8  C8  UNL     1      29.912  29.318  36.630  1.00  0.00    -0.027 C 
BRANCH   8   9
HETATM    9  C9  UNL     1      30.345  28.753  35.298  1.00  0.00     0.064 C 
BRANCH   9  10
HETATM   10  C10 UNL     1      31.110  27.404  35.395  1.00  0.00     0.057 C 
HETATM   11  C15 UNL     1      30.383  26.359  34.538  1.00  0.00     0.046 C 
BRANCH  10  12
HETATM   12  C11 UNL     1      31.253  26.940  36.864  1.00  0.00     0.038 C 
BRANCH  12  13
HETATM   13  C12 UNL     1      30.439  25.686  37.218  1.00  0.00     0.002 C 
BRANCH  13  14
HETATM   14  C13 UNL     1      30.539  25.301  38.697  1.00  0.00    -0.004 C 
HETATM   15  C14 UNL     1      31.208  23.956  38.933  1.00  0.00     0.005 C 
ENDBRANCH  13  14
ENDBRANCH  12  13
ENDBRANCH  10  12
BRANCH  10  16
HETATM   16  O1  UNL     1      32.425  27.575  34.850  1.00  0.00    -0.390 OA
HETATM   17  H21 UNL     1      33.048  27.666  35.591  1.00  0.00     0.210 HD
ENDBRANCH  10  16
ENDBRANCH   9  10
ENDBRANCH   8   9
ENDBRANCH   2   7
BRANCH   1  18
HETATM   18  O2  UNL     1      30.117  32.910  39.916  1.00  0.00    -0.394 OA
HETATM   19  H25 UNL     1      29.927  33.859  39.821  1.00  0.00     0.210 HD
ENDBRANCH   1  18
BRANCH   3  20
HETATM   20  C6  UNL     1      29.272  29.999  40.884  1.00  0.00     0.013 C 
BRANCH  20  21
HETATM   21  C16 UNL     1      30.558  29.285  41.319  1.00  0.00     0.001 C 
BRANCH  21  22
HETATM   22  C17 UNL     1      30.527  27.770  41.084  1.00  0.00     0.000 C 
BRANCH  22  23
HETATM   23  C18 UNL     1      31.511  26.997  41.964  1.00  0.00     0.000 C 
BRANCH  23  24
HETATM   24  C19 UNL     1      32.774  26.548  41.219  1.00  0.00     0.010 C 
BRANCH  24  25
HETATM   25  C20 UNL     1      34.016  26.382  42.092  1.00  0.00     0.111 C 
BRANCH  25  26
HETATM   26  C21 UNL     1      35.223  27.096  41.538  1.00  0.00     0.258 C 
HETATM   27  O4  UNL     1      35.859  26.713  40.565  1.00  0.00    -0.265 OA
BRANCH  26  28
HETATM   28  O5  UNL     1      35.506  28.205  42.275  1.00  0.00    -0.326 OA
HETATM   29  C22 UNL     1      35.178  28.080  43.659  1.00  0.00     0.213 C 
ENDBRANCH  26  28
ENDBRANCH  25  26
ENDBRANCH  24  25
ENDBRANCH  23  24
ENDBRANCH  22  23
ENDBRANCH  21  22
ENDBRANCH  20  21
ENDBRANCH   3  20
TORSDOF 16
