REMARK  6 active torsions:
REMARK  status: ('A' for Active; 'I' for Inactive)
REMARK       I    between atoms: N1_1  and  C1_2 
REMARK    1  A    between atoms: N1_1  and  C10_16 
REMARK    2  A    between atoms: C1_2  and  C2_3 
REMARK    3  A    between atoms: C2_3  and  S1_5 
REMARK    4  A    between atoms: S1_5  and  C3_6 
REMARK    5  A    between atoms: N2_7  and  C9_15 
REMARK    6  A    between atoms: C22_31  and  O3_32 
ROOT
HETATM    1  C3  UNL     1      27.929  31.281  34.460  1.00  0.00     0.177 A 
HETATM    2  N2  UNL     1      28.245  30.560  33.305  1.00  0.00    -0.253 N 
HETATM    3  C4  UNL     1      28.313  31.210  32.065  1.00  0.00     0.273 A 
HETATM    4  C5  UNL     1      28.180  32.679  32.153  1.00  0.00     0.094 A 
HETATM    5  C6  UNL     1      27.941  33.244  33.334  1.00  0.00     0.060 A 
HETATM    6  N3  UNL     1      27.771  32.568  34.504  1.00  0.00    -0.227 NA
HETATM    7  S2  UNL     1      28.298  33.759  30.825  1.00  0.00    -0.122 SA
HETATM    8  C7  UNL     1      28.321  35.213  31.933  1.00  0.00     0.086 C 
HETATM    9  C8  UNL     1      27.814  34.737  33.298  1.00  0.00     0.071 C 
HETATM   10  O2  UNL     1      28.470  30.655  30.978  1.00  0.00    -0.266 OA
ENDROOT
BRANCH   1  11
HETATM   11  S1  UNL     1      27.570  30.431  35.960  1.00  0.00    -0.082 SA
BRANCH  11  12
HETATM   12  C2  UNL     1      28.105  31.698  37.138  1.00  0.00     0.185 C 
BRANCH  12  13
HETATM   13  C1  UNL     1      29.302  31.233  37.957  1.00  0.00     0.233 C 
HETATM   14  N1  UNL     1      29.168  29.933  38.396  1.00  0.00    -0.305 N 
HETATM   15  H1  UNL     1      28.310  29.428  38.229  1.00  0.00     0.171 HD
HETATM   16  O1  UNL     1      30.260  31.979  38.148  1.00  0.00    -0.272 OA
BRANCH  14  17
HETATM   17  C10 UNL     1      30.015  29.242  39.222  1.00  0.00     0.174 A 
HETATM   18  S3  UNL     1      31.094  28.050  38.675  1.00  0.00    -0.050 SA
HETATM   19  C11 UNL     1      31.665  27.827  40.283  1.00  0.00     0.037 A 
HETATM   20  C12 UNL     1      30.968  28.689  41.129  1.00  0.00     0.076 A 
HETATM   21  C13 UNL     1      32.656  26.954  40.763  1.00  0.00     0.028 A 
HETATM   22  N4  UNL     1      30.025  29.492  40.509  1.00  0.00    -0.223 NA
HETATM   23  C16 UNL     1      31.268  28.677  42.506  1.00  0.00     0.034 A 
HETATM   24  C15 UNL     1      32.254  27.812  42.996  1.00  0.00     0.009 A 
HETATM   25  C14 UNL     1      32.951  26.959  42.136  1.00  0.00    -0.061 A 
HETATM   26  C17 UNL     1      33.995  26.021  42.671  1.00  0.00     0.048 C 
ENDBRANCH  14  17
ENDBRANCH  12  13
ENDBRANCH  11  12
ENDBRANCH   1  11
BRANCH   2  27
HETATM   27  C9  UNL     1      28.540  29.160  33.327  1.00  0.00     0.078 A 
HETATM   28  C18 UNL     1      29.774  28.724  33.835  1.00  0.00     0.033 A 
HETATM   29  C19 UNL     1      30.092  27.368  33.847  1.00  0.00     0.002 A 
HETATM   30  C20 UNL     1      29.175  26.436  33.366  1.00  0.00     0.003 A 
HETATM   31  C21 UNL     1      27.930  26.853  32.890  1.00  0.00     0.039 A 
HETATM   32  C22 UNL     1      27.597  28.212  32.875  1.00  0.00     0.095 A 
BRANCH  32  33
HETATM   33  O3  UNL     1      26.369  28.705  32.508  1.00  0.00    -0.354 OA
HETATM   34  C23 UNL     1      25.586  27.910  31.625  1.00  0.00     0.210 C 
ENDBRANCH  32  33
ENDBRANCH   2  27
TORSDOF 6
