REMARK  17 active torsions:
REMARK  status: ('A' for Active; 'I' for Inactive)
REMARK    1  A    between atoms: C1_1  and  O2_7 
REMARK    2  A    between atoms: C2_2  and  C12_14 
REMARK    3  A    between atoms: C3_3  and  C6_8 
REMARK    4  A    between atoms: C6_8  and  C7_9 
REMARK    5  A    between atoms: C8_10  and  C9_11 
REMARK    6  A    between atoms: C9_11  and  C10_12 
REMARK    7  A    between atoms: C10_12  and  C11_13 
REMARK    8  A    between atoms: C11_13  and  C20_23 
REMARK    9  A    between atoms: C13_15  and  C14_16 
REMARK   10  A    between atoms: C14_16  and  C15_17 
REMARK   11  A    between atoms: C14_16  and  O3_22 
REMARK   12  A    between atoms: C15_17  and  C16_18 
REMARK   13  A    between atoms: C16_18  and  C17_19 
REMARK   14  A    between atoms: C17_19  and  C18_20 
REMARK       I    between atoms: C20_23  and  N1_25 
REMARK   15  A    between atoms: N1_25  and  C21_26 
REMARK   16  A    between atoms: C21_26  and  C22_27 
REMARK   17  A    between atoms: C22_27  and  O5_28 
ROOT
HETATM    1  C1  UNL     1      30.122  31.565  38.211  1.00  0.00     0.133 C 
HETATM    2  C2  UNL     1      30.115  30.035  38.050  1.00  0.00     0.048 C 
HETATM    3  C3  UNL     1      28.672  29.606  38.394  1.00  0.00     0.069 C 
HETATM    4  C4  UNL     1      27.883  30.847  38.037  1.00  0.00     0.134 C 
HETATM    5  C5  UNL     1      28.749  32.044  37.757  1.00  0.00     0.111 C 
HETATM    6  O1  UNL     1      26.660  30.868  37.952  1.00  0.00    -0.297 OA
ENDROOT
BRANCH   3   7
HETATM    7  C6  UNL     1      28.436  29.264  39.868  1.00  0.00     0.040 C 
BRANCH   7   8
HETATM    8  C7  UNL     1      28.781  27.833  40.185  1.00  0.00    -0.030 C 
HETATM    9  C8  UNL     1      29.960  27.339  40.595  1.00  0.00    -0.031 C 
BRANCH   9  10
HETATM   10  C9  UNL     1      31.241  28.088  40.845  1.00  0.00     0.027 C 
BRANCH  10  11
HETATM   11  C10 UNL     1      31.560  28.250  42.337  1.00  0.00     0.013 C 
BRANCH  11  12
HETATM   12  C11 UNL     1      31.850  26.938  43.070  1.00  0.00     0.103 C 
BRANCH  12  13
HETATM   13  C20 UNL     1      32.985  26.142  42.450  1.00  0.00     0.217 C 
HETATM   14  O4  UNL     1      32.846  25.386  41.494  1.00  0.00    -0.274 OA
HETATM   15  N1  UNL     1      34.189  26.336  43.091  1.00  0.00    -0.359 N 
HETATM   16  H32 UNL     1      34.297  27.163  43.665  1.00  0.00     0.162 HD
BRANCH  15  17
HETATM   17  C21 UNL     1      35.417  25.769  42.560  1.00  0.00     0.148 C 
BRANCH  17  18
HETATM   18  C22 UNL     1      36.125  26.740  41.615  1.00  0.00     0.183 C 
BRANCH  18  19
HETATM   19  O5  UNL     1      35.593  26.598  40.297  1.00  0.00    -0.399 OA
HETATM   20  H37 UNL     1      34.833  27.202  40.239  1.00  0.00     0.209 HD
ENDBRANCH  18  19
ENDBRANCH  17  18
ENDBRANCH  15  17
ENDBRANCH  12  13
ENDBRANCH  11  12
ENDBRANCH  10  11
ENDBRANCH   9  10
ENDBRANCH   7   8
ENDBRANCH   3   7
BRANCH   2  21
HETATM   21  C12 UNL     1      30.489  29.626  36.640  1.00  0.00    -0.020 C 
HETATM   22  C13 UNL     1      30.720  28.352  36.282  1.00  0.00     0.001 C 
BRANCH  22  23
HETATM   23  C14 UNL     1      31.060  27.906  34.890  1.00  0.00     0.140 C 
BRANCH  23  24
HETATM   24  C15 UNL     1      30.127  26.809  34.370  1.00  0.00     0.036 C 
BRANCH  24  25
HETATM   25  C16 UNL     1      29.258  27.266  33.197  1.00  0.00     0.003 C 
BRANCH  25  26
HETATM   26  C17 UNL     1      29.277  28.780  32.956  1.00  0.00    -0.000 C 
BRANCH  26  27
HETATM   27  C18 UNL     1      27.941  29.487  33.208  1.00  0.00    -0.005 C 
HETATM   28  C19 UNL     1      28.043  30.627  34.213  1.00  0.00     0.005 C 
ENDBRANCH  26  27
ENDBRANCH  25  26
ENDBRANCH  24  25
ENDBRANCH  23  24
BRANCH  23  29
HETATM   29  O3  UNL     1      32.380  27.378  34.936  1.00  0.00    -0.392 OA
HETATM   30  H31 UNL     1      32.961  28.036  34.520  1.00  0.00     0.210 HD
ENDBRANCH  23  29
ENDBRANCH  22  23
ENDBRANCH   2  21
BRANCH   1  31
HETATM   31  O2  UNL     1      30.310  31.921  39.578  1.00  0.00    -0.394 OA
HETATM   32  H6  UNL     1      30.320  32.894  39.636  1.00  0.00     0.210 HD
ENDBRANCH   1  31
TORSDOF 17
