REMARK  9 active torsions:
REMARK  status: ('A' for Active; 'I' for Inactive)
REMARK    1  A    between atoms: C1_1  and  C2_2 
REMARK    2  A    between atoms: C1_1  and  C3_4 
REMARK    3  A    between atoms: C2_2  and  C16_19 
REMARK    4  A    between atoms: N1_6  and  C11_13 
REMARK    5  A    between atoms: C11_13  and  C12_14 
REMARK    6  A    between atoms: C12_14  and  C13_15 
REMARK    7  A    between atoms: C13_15  and  C14_16 
REMARK    8  A    between atoms: C14_16  and  C15_17 
REMARK    9  A    between atoms: C16_19  and  C17_20 
ROOT
HETATM    1  C3  UNL     1      31.759  27.175  41.184  1.00  0.00     0.038 A 
HETATM    2  C4  UNL     1      31.492  28.344  40.492  1.00  0.00     0.107 A 
HETATM    3  N1  UNL     1      31.051  28.022  39.233  1.00  0.00    -0.355 N 
HETATM    4  C5  UNL     1      31.057  26.655  39.065  1.00  0.00     0.045 A 
HETATM    5  C6  UNL     1      31.487  26.098  40.275  1.00  0.00     0.006 A 
HETATM    6  C7  UNL     1      30.720  25.859  37.956  1.00  0.00     0.030 A 
HETATM    7  C8  UNL     1      30.816  24.470  38.084  1.00  0.00     0.002 A 
HETATM    8  C9  UNL     1      31.234  23.891  39.276  1.00  0.00     0.001 A 
HETATM    9  C10 UNL     1      31.571  24.691  40.372  1.00  0.00     0.014 A 
ENDROOT
BRANCH   1  10
HETATM   10  C1  UNL     1      32.237  27.075  42.571  1.00  0.00     0.162 C 
HETATM   11  O1  UNL     1      31.728  27.755  43.460  1.00  0.00    -0.292 OA
BRANCH  10  12
HETATM   12  C2  UNL     1      33.358  26.072  42.858  1.00  0.00     0.097 C 
BRANCH  12  13
HETATM   13  C16 UNL     1      34.821  26.588  42.722  1.00  0.00    -0.019 C 
HETATM   14  C18 UNL     1      35.302  26.361  41.269  1.00  0.00     0.020 C 
HETATM   15  C19 UNL     1      34.766  28.121  42.950  1.00  0.00     0.020 C 
BRANCH  13  16
HETATM   16  C17 UNL     1      35.809  26.008  43.760  1.00  0.00    -0.085 C 
HETATM   17  C20 UNL     1      36.271  26.926  44.870  1.00  0.00     0.043 C 
HETATM   18  C21 UNL     1      36.265  24.741  43.746  1.00  0.00     0.014 C 
ENDBRANCH  13  16
ENDBRANCH  12  13
ENDBRANCH  10  12
ENDBRANCH   1  10
BRANCH   3  19
HETATM   19  C11 UNL     1      30.674  28.999  38.223  1.00  0.00     0.128 C 
BRANCH  19  20
HETATM   20  C12 UNL     1      29.576  29.965  38.681  1.00  0.00     0.020 C 
BRANCH  20  21
HETATM   21  C13 UNL     1      28.277  29.306  39.159  1.00  0.00     0.004 C 
BRANCH  21  22
HETATM   22  C14 UNL     1      27.613  29.924  40.394  1.00  0.00     0.031 C 
BRANCH  22  23
HETATM   23  C15 UNL     1      28.530  30.829  41.199  1.00  0.00     0.222 C 
HETATM   24  F1  UNL     1      27.803  31.464  42.158  1.00  0.00    -0.255 F 
ENDBRANCH  22  23
ENDBRANCH  21  22
ENDBRANCH  20  21
ENDBRANCH  19  20
ENDBRANCH   3  19
TORSDOF 9
