REMARK  6 active torsions:
REMARK  status: ('A' for Active; 'I' for Inactive)
REMARK    1  A    between atoms: C4_4  and  N1_8 
REMARK    2  A    between atoms: C6_6  and  C9_13 
REMARK    3  A    between atoms: N1_8  and  S1_9 
REMARK    4  A    between atoms: C11_17  and  N4_19 
REMARK       I    between atoms: N4_19  and  C13_20 
REMARK    5  A    between atoms: C13_20  and  O3_21 
REMARK    6  A    between atoms: O3_21  and  C14_23 
ROOT
HETATM    1  C9  UNL     1      30.453  28.336  39.121  1.00  0.00     0.090 A 
HETATM    2  N2  UNL     1      30.332  27.106  38.710  1.00  0.00    -0.164 NA
HETATM    3  N3  UNL     1      31.081  26.218  39.424  1.00  0.00    -0.195 N 
HETATM    4  C10 UNL     1      31.904  26.484  40.494  1.00  0.00     0.201 A 
HETATM    5  C11 UNL     1      31.998  27.825  40.936  1.00  0.00     0.089 A 
HETATM    6  C12 UNL     1      31.291  28.762  40.287  1.00  0.00     0.068 A 
HETATM    7  C16 UNL     1      31.178  24.862  39.225  1.00  0.00     0.148 A 
HETATM    8  N5  UNL     1      32.001  24.344  40.116  1.00  0.00    -0.133 NA
HETATM    9  N6  UNL     1      32.459  25.366  40.918  1.00  0.00    -0.126 NA
HETATM   10  C17 UNL     1      30.451  24.149  38.155  1.00  0.00     0.095 C 
ENDROOT
BRANCH   1  11
HETATM   11  C6  UNL     1      29.697  29.407  38.408  1.00  0.00    -0.004 A 
HETATM   12  C1  UNL     1      29.773  29.578  37.023  1.00  0.00     0.014 A 
HETATM   13  C2  UNL     1      29.032  30.587  36.400  1.00  0.00     0.009 A 
HETATM   14  C3  UNL     1      28.201  31.437  37.146  1.00  0.00    -0.040 A 
HETATM   15  C4  UNL     1      28.126  31.252  38.536  1.00  0.00     0.029 A 
HETATM   16  C7  UNL     1      27.393  32.487  36.437  1.00  0.00     0.050 C 
HETATM   17  C5  UNL     1      28.857  30.238  39.158  1.00  0.00     0.038 A 
BRANCH  15  18
HETATM   18  N1  UNL     1      27.246  32.039  39.342  1.00  0.00    -0.185 NA
HETATM   19  H7  UNL     1      26.376  31.579  39.615  1.00  0.00     0.146 HD
BRANCH  18  20
HETATM   20  S1  UNL     1      27.918  32.779  40.711  1.00  0.00     0.210 S 
HETATM   21  C8  UNL     1      27.624  31.540  41.953  1.00  0.00     0.180 C 
HETATM   22  O1  UNL     1      29.344  32.817  40.459  1.00  0.00    -0.211 OA
HETATM   23  O2  UNL     1      27.181  33.975  41.051  1.00  0.00    -0.211 OA
ENDBRANCH  18  20
ENDBRANCH  15  18
ENDBRANCH   1  11
BRANCH   5  24
HETATM   24  N4  UNL     1      32.813  28.042  42.022  1.00  0.00    -0.299 N 
HETATM   25  C13 UNL     1      32.477  28.198  43.335  1.00  0.00     0.365 C 
HETATM   26  O4  UNL     1      31.353  28.173  43.813  1.00  0.00    -0.238 OA
HETATM   27  H12 UNL     1      33.809  28.111  41.835  1.00  0.00     0.171 HD
BRANCH  25  28
HETATM   28  O3  UNL     1      33.614  28.392  44.052  1.00  0.00    -0.304 OA
BRANCH  28  29
HETATM   29  C14 UNL     1      34.793  27.838  43.456  1.00  0.00     0.176 C 
HETATM   30  C15 UNL     1      35.776  27.515  44.564  1.00  0.00     0.034 C 
ENDBRANCH  28  29
ENDBRANCH  25  28
ENDBRANCH   5  24
TORSDOF 6
