REMARK  7 active torsions:
REMARK  status: ('A' for Active; 'I' for Inactive)
REMARK    1  A    between atoms: C1_1  and  C2_2 
REMARK    2  A    between atoms: C1_1  and  O2_4 
REMARK    3  A    between atoms: O2_4  and  C3_5 
REMARK    4  A    between atoms: N1_12  and  C16_19 
REMARK    5  A    between atoms: C16_19  and  C17_20 
REMARK    6  A    between atoms: C17_20  and  C18_21 
REMARK    7  A    between atoms: C18_21  and  C19_22 
ROOT
HETATM    1  C2  UNL     1      30.970  27.973  38.895  1.00  0.00     0.068 A 
HETATM    2  C9  UNL     1      31.359  28.485  40.122  1.00  0.00     0.110 A 
HETATM    3  N1  UNL     1      31.674  27.449  40.956  1.00  0.00    -0.355 N 
HETATM    4  C10 UNL     1      31.495  26.247  40.306  1.00  0.00     0.045 A 
HETATM    5  C11 UNL     1      31.046  26.543  39.011  1.00  0.00     0.008 A 
HETATM    6  C12 UNL     1      31.688  24.926  40.746  1.00  0.00     0.030 A 
HETATM    7  C13 UNL     1      31.413  23.883  39.860  1.00  0.00     0.002 A 
HETATM    8  C14 UNL     1      30.958  24.145  38.574  1.00  0.00     0.001 A 
HETATM    9  C15 UNL     1      30.770  25.462  38.141  1.00  0.00     0.015 A 
ENDROOT
BRANCH   1  10
HETATM   10  C1  UNL     1      30.575  28.812  37.764  1.00  0.00     0.301 C 
HETATM   11  O1  UNL     1      30.556  28.396  36.609  1.00  0.00    -0.259 OA
BRANCH  10  12
HETATM   12  O2  UNL     1      30.169  30.081  38.162  1.00  0.00    -0.272 OA
BRANCH  12  13
HETATM   13  C3  UNL     1      28.854  30.373  37.769  1.00  0.00     0.109 A 
HETATM   14  C4  UNL     1      27.828  30.318  38.718  1.00  0.00     0.100 A 
HETATM   15  C5  UNL     1      26.523  30.596  38.260  1.00  0.00    -0.004 A 
HETATM   16  N2  UNL     1      28.080  30.006  40.010  1.00  0.00    -0.257 NA
HETATM   17  C6  UNL     1      26.289  30.899  36.904  1.00  0.00     0.014 A 
HETATM   18  C23 UNL     1      25.475  30.560  39.191  1.00  0.00     0.015 A 
HETATM   19  C7  UNL     1      27.341  30.921  35.986  1.00  0.00     0.004 A 
HETATM   20  C8  UNL     1      28.633  30.650  36.417  1.00  0.00     0.040 A 
HETATM   21  C22 UNL     1      25.738  30.250  40.519  1.00  0.00     0.020 A 
HETATM   22  C21 UNL     1      27.045  29.982  40.877  1.00  0.00     0.117 A 
ENDBRANCH  12  13
ENDBRANCH  10  12
ENDBRANCH   1  10
BRANCH   3  23
HETATM   23  C16 UNL     1      32.114  27.616  42.334  1.00  0.00     0.128 C 
BRANCH  23  24
HETATM   24  C17 UNL     1      33.638  27.604  42.453  1.00  0.00     0.020 C 
BRANCH  24  25
HETATM   25  C18 UNL     1      34.190  26.275  42.980  1.00  0.00     0.001 C 
BRANCH  25  26
HETATM   26  C19 UNL     1      35.545  25.864  42.397  1.00  0.00    -0.004 C 
HETATM   27  C20 UNL     1      35.792  26.343  40.978  1.00  0.00     0.005 C 
ENDBRANCH  25  26
ENDBRANCH  24  25
ENDBRANCH  23  24
ENDBRANCH   3  23
TORSDOF 7
