REMARK  8 active torsions:
REMARK  status: ('A' for Active; 'I' for Inactive)
REMARK    1  A    between atoms: C1_1  and  C2_2 
REMARK    2  A    between atoms: C1_1  and  C3_4 
REMARK    3  A    between atoms: N1_11  and  C16_18 
REMARK    4  A    between atoms: C16_18  and  C17_19 
REMARK    5  A    between atoms: C17_19  and  C18_20 
REMARK    6  A    between atoms: C18_20  and  C19_21 
REMARK    7  A    between atoms: C19_21  and  C20_22 
REMARK    8  A    between atoms: C20_22  and  O2_28 
ROOT
HETATM    1  C2  UNL     1      30.250  29.095  40.512  1.00  0.00     0.043 A 
HETATM    2  C9  UNL     1      30.919  28.885  41.705  1.00  0.00     0.107 A 
HETATM    3  N1  UNL     1      31.429  27.616  41.714  1.00  0.00    -0.355 N 
HETATM    4  C10 UNL     1      31.099  26.968  40.543  1.00  0.00     0.045 A 
HETATM    5  C11 UNL     1      30.371  27.875  39.759  1.00  0.00     0.006 A 
HETATM    6  C12 UNL     1      31.389  25.663  40.108  1.00  0.00     0.030 A 
HETATM    7  C13 UNL     1      30.942  25.268  38.847  1.00  0.00     0.002 A 
HETATM    8  C14 UNL     1      30.230  26.145  38.042  1.00  0.00     0.001 A 
HETATM    9  C15 UNL     1      29.944  27.443  38.481  1.00  0.00     0.015 A 
ENDROOT
BRANCH   1  10
HETATM   10  C1  UNL     1      29.597  30.368  40.205  1.00  0.00     0.195 C 
HETATM   11  O1  UNL     1      30.193  31.443  40.222  1.00  0.00    -0.287 OA
BRANCH  10  12
HETATM   12  C3  UNL     1      28.167  30.390  39.842  1.00  0.00     0.026 A 
HETATM   13  C4  UNL     1      27.731  30.552  38.501  1.00  0.00    -0.010 A 
HETATM   14  C5  UNL     1      26.334  30.571  38.244  1.00  0.00    -0.003 A 
HETATM   15  C21 UNL     1      28.623  30.689  37.409  1.00  0.00     0.013 A 
HETATM   16  C6  UNL     1      25.438  30.407  39.334  1.00  0.00     0.045 A 
HETATM   17  C24 UNL     1      25.901  30.751  36.908  1.00  0.00     0.014 A 
HETATM   18  C7  UNL     1      25.900  30.219  40.640  1.00  0.00     0.026 A 
HETATM   19 CL1  UNL     1      23.716  30.421  39.122  1.00  0.00    -0.083 Cl
HETATM   20  C8  UNL     1      27.264  30.205  40.896  1.00  0.00     0.018 A 
HETATM   21  C23 UNL     1      26.802  30.897  35.852  1.00  0.00     0.001 A 
HETATM   22  C22 UNL     1      28.164  30.862  36.104  1.00  0.00     0.001 A 
ENDBRANCH  10  12
ENDBRANCH   1  10
BRANCH   3  23
HETATM   23  C16 UNL     1      32.184  27.049  42.818  1.00  0.00     0.128 C 
BRANCH  23  24
HETATM   24  C17 UNL     1      33.359  27.915  43.275  1.00  0.00     0.020 C 
BRANCH  24  25
HETATM   25  C18 UNL     1      34.659  27.122  43.446  1.00  0.00     0.004 C 
BRANCH  25  26
HETATM   26  C19 UNL     1      34.745  25.976  42.440  1.00  0.00     0.026 C 
BRANCH  26  27
HETATM   27  C20 UNL     1      36.014  26.054  41.605  1.00  0.00     0.164 C 
BRANCH  27  28
HETATM   28  O2  UNL     1      35.712  26.689  40.370  1.00  0.00    -0.401 OA
HETATM   29  H22 UNL     1      35.855  26.030  39.669  1.00  0.00     0.209 HD
ENDBRANCH  27  28
ENDBRANCH  26  27
ENDBRANCH  25  26
ENDBRANCH  24  25
ENDBRANCH  23  24
ENDBRANCH   3  23
TORSDOF 8
