REMARK  8 active torsions:
REMARK  status: ('A' for Active; 'I' for Inactive)
REMARK    1  A    between atoms: C1_1  and  C2_2 
REMARK    2  A    between atoms: C1_1  and  C3_4 
REMARK    3  A    between atoms: N1_11  and  C16_18 
REMARK    4  A    between atoms: C16_18  and  C17_19 
REMARK    5  A    between atoms: C17_19  and  C18_20 
REMARK    6  A    between atoms: C18_20  and  C19_21 
REMARK    7  A    between atoms: C19_21  and  C20_22 
REMARK    8  A    between atoms: C20_22  and  O2_28 
ROOT
HETATM    1  C2  UNL     1      30.298  28.956  40.526  1.00  0.00     0.043 A 
HETATM    2  C9  UNL     1      30.871  28.714  41.761  1.00  0.00     0.107 A 
HETATM    3  N1  UNL     1      31.353  27.434  41.791  1.00  0.00    -0.355 N 
HETATM    4  C10 UNL     1      31.078  26.802  40.597  1.00  0.00     0.045 A 
HETATM    5  C11 UNL     1      30.449  27.744  39.767  1.00  0.00     0.006 A 
HETATM    6  C12 UNL     1      31.335  25.487  40.167  1.00  0.00     0.030 A 
HETATM    7  C13 UNL     1      30.976  25.127  38.867  1.00  0.00     0.002 A 
HETATM    8  C14 UNL     1      30.382  26.046  38.015  1.00  0.00     0.001 A 
HETATM    9  C15 UNL     1      30.117  27.349  38.450  1.00  0.00     0.015 A 
ENDROOT
BRANCH   1  10
HETATM   10  C1  UNL     1      29.698  30.243  40.182  1.00  0.00     0.195 C 
HETATM   11  O1  UNL     1      30.329  31.297  40.200  1.00  0.00    -0.287 OA
BRANCH  10  12
HETATM   12  C3  UNL     1      28.259  30.299  39.845  1.00  0.00     0.026 A 
HETATM   13  C4  UNL     1      27.824  30.508  38.512  1.00  0.00    -0.010 A 
HETATM   14  C5  UNL     1      26.426  30.557  38.256  1.00  0.00    -0.003 A 
HETATM   15  C21 UNL     1      28.718  30.655  37.423  1.00  0.00     0.013 A 
HETATM   16  C6  UNL     1      25.529  30.408  39.347  1.00  0.00     0.045 A 
HETATM   17  C24 UNL     1      25.997  30.750  36.919  1.00  0.00     0.014 A 
HETATM   18  C7  UNL     1      25.989  30.218  40.653  1.00  0.00     0.026 A 
HETATM   19 CL1  UNL     1      23.808  30.450  39.135  1.00  0.00    -0.083 Cl
HETATM   20  C8  UNL     1      27.353  30.166  40.905  1.00  0.00     0.018 A 
HETATM   21  C23 UNL     1      26.902  30.891  35.867  1.00  0.00     0.001 A 
HETATM   22  C22 UNL     1      28.263  30.844  36.119  1.00  0.00     0.001 A 
ENDBRANCH  10  12
ENDBRANCH   1  10
BRANCH   3  23
HETATM   23  C16 UNL     1      32.030  26.857  42.942  1.00  0.00     0.128 C 
BRANCH  23  24
HETATM   24  C17 UNL     1      33.557  26.981  42.896  1.00  0.00     0.021 C 
BRANCH  24  25
HETATM   25  C18 UNL     1      34.323  25.678  42.624  1.00  0.00     0.012 C 
BRANCH  25  26
HETATM   26  C19 UNL     1      35.836  25.823  42.505  1.00  0.00     0.110 C 
BRANCH  26  27
HETATM   27  C20 UNL     1      36.230  26.859  41.494  1.00  0.00     0.139 C 
HETATM   28  O3  UNL     1      36.891  27.860  41.717  1.00  0.00    -0.650 OA
BRANCH  27  29
HETATM   29  O2  UNL     1      35.743  26.608  40.266  1.00  0.00    -0.776 OA
HETATM   30  H20 UNL     1      36.257  25.834  39.951  1.00  0.00     0.167 HD
ENDBRANCH  27  29
ENDBRANCH  26  27
ENDBRANCH  25  26
ENDBRANCH  24  25
ENDBRANCH  23  24
ENDBRANCH   3  23
TORSDOF 8
