REMARK  2 active torsions:
REMARK  status: ('A' for Active; 'I' for Inactive)
REMARK       I    between atoms: N2_15  and  C14_16 
REMARK    1  A    between atoms: C14_16  and  C15_18 
REMARK    2  A    between atoms: C15_18  and  N3_19 
ROOT
HETATM    1  C1  UNL     1      30.169  28.266  34.100  1.00  0.00     0.001 A 
HETATM    2  C2  UNL     1      30.956  27.433  34.852  1.00  0.00     0.001 A 
HETATM    3  C3  UNL     1      31.116  27.574  36.217  1.00  0.00     0.013 A 
HETATM    4  C4  UNL     1      30.456  28.598  36.849  1.00  0.00    -0.008 A 
HETATM    5  C5  UNL     1      29.655  29.449  36.100  1.00  0.00     0.043 A 
HETATM    6  C6  UNL     1      29.512  29.280  34.718  1.00  0.00     0.018 A 
HETATM    7  C7  UNL     1      30.556  28.815  38.213  1.00  0.00     0.004 A 
HETATM    8  C8  UNL     1      29.860  29.875  38.809  1.00  0.00     0.046 A 
HETATM    9  N1  UNL     1      29.087  30.689  38.054  1.00  0.00    -0.322 N 
HETATM   10  C9  UNL     1      28.990  30.478  36.735  1.00  0.00     0.257 A 
HETATM   11  C10 UNL     1      31.331  28.000  38.970  1.00  0.00     0.044 A 
HETATM   12  C11 UNL     1      31.465  28.181  40.360  1.00  0.00     0.035 A 
HETATM   13  C12 UNL     1      30.790  29.208  40.942  1.00  0.00     0.032 A 
HETATM   14  C13 UNL     1      29.984  30.060  40.166  1.00  0.00     0.033 A 
HETATM   15  N2  UNL     1      32.294  27.314  41.080  1.00  0.00    -0.326 N 
HETATM   16  C14 UNL     1      32.374  27.157  42.481  1.00  0.00     0.250 C 
HETATM   17  O1  UNL     1      31.626  27.852  43.210  1.00  0.00    -0.271 OA
HETATM   18  O2  UNL     1      28.261  31.256  36.064  1.00  0.00    -0.267 OA
HETATM   19 CL1  UNL     1      32.213  27.533  39.898  1.00  0.00    -0.145 Cl
HETATM   20  H5  UNL     1      28.597  31.456  38.565  1.00  0.00     0.169 HD
HETATM   21  H9  UNL     1      32.942  26.690  40.509  1.00  0.00     0.169 HD
HETATM   22  H18 UNL     1      31.382  27.960  38.901  1.00  0.00     0.145 HD
ENDROOT
BRANCH  16  23
HETATM   23  C15 UNL     1      33.317  26.193  43.128  1.00  0.00     0.373 C 
BRANCH  23  24
HETATM   24  N3  UNL     1      34.699  26.604  43.033  1.00  0.00     0.088 N 
HETATM   25  C16 UNL     1      35.531  25.487  43.501  1.00  0.00     0.310 C 
HETATM   26  C17 UNL     1      34.979  27.697  43.972  1.00  0.00     0.310 C 
ENDBRANCH  23  24
ENDBRANCH  16  23
TORSDOF 2
