REMARK  8 active torsions:
REMARK  status: ('A' for Active; 'I' for Inactive)
REMARK    1  A    between atoms: C1_1  and  C2_2 
REMARK    2  A    between atoms: C1_1  and  O2_4 
REMARK    3  A    between atoms: O2_4  and  C3_5 
REMARK    4  A    between atoms: N2_12  and  C15_19 
REMARK    5  A    between atoms: C15_19  and  C16_20 
REMARK    6  A    between atoms: C16_20  and  C17_21 
REMARK    7  A    between atoms: C17_21  and  C18_22 
REMARK    8  A    between atoms: C18_22  and  C19_23 
ROOT
HETATM    1  C2  UNL     1      30.965  27.919  38.905  1.00  0.00     0.068 A 
HETATM    2  C8  UNL     1      31.375  28.433  40.124  1.00  0.00     0.110 A 
HETATM    3  N2  UNL     1      31.690  27.397  40.959  1.00  0.00    -0.355 N 
HETATM    4  C9  UNL     1      31.498  26.194  40.315  1.00  0.00     0.045 A 
HETATM    5  C10 UNL     1      31.043  26.488  39.021  1.00  0.00     0.008 A 
HETATM    6  C11 UNL     1      31.681  24.875  40.762  1.00  0.00     0.030 A 
HETATM    7  C12 UNL     1      31.402  23.830  39.879  1.00  0.00     0.002 A 
HETATM    8  C13 UNL     1      30.953  24.089  38.590  1.00  0.00     0.001 A 
HETATM    9  C14 UNL     1      30.770  25.405  38.153  1.00  0.00     0.015 A 
ENDROOT
BRANCH   1  10
HETATM   10  C1  UNL     1      30.550  28.755  37.782  1.00  0.00     0.300 C 
HETATM   11  O1  UNL     1      30.578  28.364  36.618  1.00  0.00    -0.259 OA
BRANCH  10  12
HETATM   12  O2  UNL     1      30.128  30.018  38.186  1.00  0.00    -0.274 OA
BRANCH  12  13
HETATM   13  C3  UNL     1      28.837  30.365  37.762  1.00  0.00     0.093 A 
HETATM   14  C4  UNL     1      27.770  30.305  38.677  1.00  0.00     0.027 A 
HETATM   15  C5  UNL     1      26.493  30.616  38.169  1.00  0.00     0.069 A 
HETATM   16  C20 UNL     1      27.919  29.956  40.038  1.00  0.00     0.017 A 
HETATM   17  N1  UNL     1      26.283  30.944  36.880  1.00  0.00    -0.260 NA
HETATM   18  C23 UNL     1      25.411  30.575  39.039  1.00  0.00     0.032 A 
HETATM   19  C6  UNL     1      27.345  30.974  36.043  1.00  0.00     0.120 A 
HETATM   20  C7  UNL     1      28.636  30.685  36.426  1.00  0.00     0.057 A 
HETATM   21  C22 UNL     1      25.558  30.233  40.386  1.00  0.00     0.002 A 
HETATM   22  C21 UNL     1      26.816  29.921  40.887  1.00  0.00     0.001 A 
ENDBRANCH  12  13
ENDBRANCH  10  12
ENDBRANCH   1  10
BRANCH   3  23
HETATM   23  C15 UNL     1      32.170  27.566  42.322  1.00  0.00     0.128 C 
BRANCH  23  24
HETATM   24  C16 UNL     1      33.696  27.526  42.403  1.00  0.00     0.020 C 
BRANCH  24  25
HETATM   25  C17 UNL     1      34.238  26.217  42.983  1.00  0.00     0.004 C 
BRANCH  25  26
HETATM   26  C18 UNL     1      35.749  26.054  42.808  1.00  0.00     0.031 C 
BRANCH  26  27
HETATM   27  C19 UNL     1      36.253  26.812  41.590  1.00  0.00     0.222 C 
HETATM   28  F1  UNL     1      35.958  26.101  40.471  1.00  0.00    -0.255 F 
ENDBRANCH  26  27
ENDBRANCH  25  26
ENDBRANCH  24  25
ENDBRANCH  23  24
ENDBRANCH   3  23
TORSDOF 8
