REMARK  10 active torsions:
REMARK  status: ('A' for Active; 'I' for Inactive)
REMARK    1  A    between atoms: C8_9  and  C9_10 
REMARK    2  A    between atoms: C9_10  and  C10_11 
REMARK    3  A    between atoms: C10_11  and  C11_12 
REMARK    4  A    between atoms: C10_11  and  N3_16 
REMARK       I    between atoms: C11_12  and  N2_14 
REMARK       I    between atoms: N3_16  and  C13_17 
REMARK    5  A    between atoms: C13_17  and  C14_18 
REMARK    6  A    between atoms: C14_18  and  C15_20 
REMARK    7  A    between atoms: C14_18  and  C16_21 
REMARK    8  A    between atoms: C15_20  and  C17_22 
REMARK    9  A    between atoms: C16_21  and  C20_25 
REMARK       I    between atoms: C20_25  and  N4_27 
REMARK   10  A    between atoms: N4_27  and  O4_28 
ROOT
HETATM    1  C10 UNL     1      30.804  27.861  39.625  1.00  0.00     0.180 C 
ENDROOT
BRANCH   1   2
HETATM    2  C9  UNL     1      31.101  26.863  40.752  1.00  0.00     0.075 C 
BRANCH   2   3
HETATM    3  C8  UNL     1      32.107  27.381  41.735  1.00  0.00    -0.028 A 
HETATM    4  C5  UNL     1      33.523  27.169  41.701  1.00  0.00    -0.002 A 
HETATM    5  C4  UNL     1      34.072  27.832  42.799  1.00  0.00     0.042 A 
HETATM    6  C6  UNL     1      34.392  26.473  40.834  1.00  0.00     0.014 A 
HETATM    7  C3  UNL     1      35.445  27.836  43.075  1.00  0.00     0.030 A 
HETATM    8  N1  UNL     1      33.032  28.420  43.478  1.00  0.00    -0.365 N 
HETATM    9  C2  UNL     1      36.283  27.140  42.199  1.00  0.00     0.002 A 
HETATM   10  C1  UNL     1      35.767  26.467  41.095  1.00  0.00     0.001 A 
HETATM   11  C7  UNL     1      31.845  28.153  42.850  1.00  0.00     0.096 A 
HETATM   12  H5  UNL     1      33.136  28.966  44.321  1.00  0.00     0.165 HD
ENDBRANCH   2   3
ENDBRANCH   1   2
BRANCH   1  13
HETATM   13  C11 UNL     1      30.625  27.070  38.317  1.00  0.00     0.240 C 
HETATM   14  O1  UNL     1      30.016  26.001  38.278  1.00  0.00    -0.271 OA
HETATM   15  N2  UNL     1      31.258  27.622  37.222  1.00  0.00    -0.364 N 
HETATM   16  C12 UNL     1      31.094  27.036  35.915  1.00  0.00     0.149 C 
HETATM   17  H10 UNL     1      31.483  28.610  37.261  1.00  0.00     0.161 HD
ENDBRANCH   1  13
BRANCH   1  18
HETATM   18  N3  UNL     1      29.562  28.604  39.852  1.00  0.00    -0.347 N 
HETATM   19  C13 UNL     1      29.603  29.911  40.279  1.00  0.00     0.223 C 
HETATM   20  O2  UNL     1      30.637  30.456  40.662  1.00  0.00    -0.273 OA
HETATM   21  H14 UNL     1      28.789  28.336  39.256  1.00  0.00     0.163 HD
BRANCH  19  22
HETATM   22  C14 UNL     1      28.255  30.631  40.239  1.00  0.00     0.087 C 
BRANCH  22  23
HETATM   23  C15 UNL     1      27.297  29.935  39.250  1.00  0.00     0.018 C 
BRANCH  23  24
HETATM   24  C17 UNL     1      26.043  30.743  38.862  1.00  0.00    -0.022 C 
HETATM   25  C18 UNL     1      25.801  30.627  37.354  1.00  0.00     0.009 C 
HETATM   26  C19 UNL     1      24.798  30.282  39.621  1.00  0.00     0.009 C 
ENDBRANCH  23  24
ENDBRANCH  22  23
BRANCH  22  27
HETATM   27  C16 UNL     1      28.445  32.136  39.991  1.00  0.00     0.119 C 
BRANCH  27  28
HETATM   28  C20 UNL     1      29.322  32.476  38.801  1.00  0.00     0.241 C 
HETATM   29  O3  UNL     1      29.080  32.081  37.661  1.00  0.00    -0.271 OA
HETATM   30  N4  UNL     1      30.411  33.263  39.084  1.00  0.00    -0.237 N 
HETATM   31  H27 UNL     1      30.835  33.216  40.017  1.00  0.00     0.197 HD
BRANCH  30  32
HETATM   32  O4  UNL     1      31.306  33.447  38.000  1.00  0.00    -0.287 OA
HETATM   33  H28 UNL     1      30.752  33.938  37.354  1.00  0.00     0.244 HD
ENDBRANCH  30  32
ENDBRANCH  27  28
ENDBRANCH  22  27
ENDBRANCH  19  22
ENDBRANCH   1  18
TORSDOF 10
