REMARK  8 active torsions:
REMARK  status: ('A' for Active; 'I' for Inactive)
REMARK    1  A    between atoms: C2_2  and  C5_6 
REMARK    2  A    between atoms: N1_4  and  C7_10 
REMARK    3  A    between atoms: C5_6  and  O2_8 
REMARK    4  A    between atoms: O2_8  and  C6_9 
REMARK    5  A    between atoms: C7_10  and  C8_11 
REMARK    6  A    between atoms: C8_11  and  C9_12 
REMARK    7  A    between atoms: C9_12  and  C10_13 
REMARK    8  A    between atoms: C10_13  and  C20_23 
ROOT
HETATM    1  C1  UNL     1      31.082  26.622  39.201  1.00  0.00     0.008 A 
HETATM    2  C2  UNL     1      31.121  28.035  39.466  1.00  0.00     0.068 A 
HETATM    3  C3  UNL     1      31.608  28.176  40.755  1.00  0.00     0.110 A 
HETATM    4  N1  UNL     1      31.863  26.937  41.272  1.00  0.00    -0.355 N 
HETATM    5  C4  UNL     1      31.550  25.964  40.347  1.00  0.00     0.045 A 
HETATM    6  C11 UNL     1      31.643  24.564  40.420  1.00  0.00     0.030 A 
HETATM    7  C12 UNL     1      31.253  23.813  39.309  1.00  0.00     0.002 A 
HETATM    8  C13 UNL     1      30.784  24.437  38.160  1.00  0.00     0.001 A 
HETATM    9  C14 UNL     1      30.694  25.831  38.094  1.00  0.00     0.015 A 
ENDROOT
BRANCH   2  10
HETATM   10  C5  UNL     1      30.749  29.169  38.623  1.00  0.00     0.300 C 
HETATM   11  O1  UNL     1      30.849  29.143  37.400  1.00  0.00    -0.259 OA
BRANCH  10  12
HETATM   12  O2  UNL     1      30.278  30.250  39.362  1.00  0.00    -0.275 OA
BRANCH  12  13
HETATM   13  C6  UNL     1      28.885  30.323  39.436  1.00  0.00     0.080 A 
HETATM   14  C15 UNL     1      28.270  30.127  40.668  1.00  0.00     0.038 A 
HETATM   15  C16 UNL     1      26.877  30.150  40.741  1.00  0.00     0.016 A 
HETATM   16  C17 UNL     1      26.106  30.355  39.580  1.00  0.00    -0.008 A 
HETATM   17  C18 UNL     1      26.743  30.535  38.333  1.00  0.00    -0.021 A 
HETATM   18  C21 UNL     1      24.709  30.386  39.595  1.00  0.00     0.128 A 
HETATM   19  C19 UNL     1      28.144  30.510  38.269  1.00  0.00     0.049 A 
HETATM   20  C23 UNL     1      25.955  30.733  37.193  1.00  0.00     0.031 A 
HETATM   21  C22 UNL     1      24.575  30.745  37.329  1.00  0.00     0.117 A 
HETATM   22  N2  UNL     1      23.933  30.574  38.503  1.00  0.00    -0.272 NA
ENDBRANCH  12  13
ENDBRANCH  10  12
ENDBRANCH   2  10
BRANCH   4  23
HETATM   23  C7  UNL     1      32.373  26.703  42.615  1.00  0.00     0.128 C 
BRANCH  23  24
HETATM   24  C8  UNL     1      33.838  27.114  42.752  1.00  0.00     0.020 C 
BRANCH  24  25
HETATM   25  C9  UNL     1      34.713  26.030  43.390  1.00  0.00     0.004 C 
BRANCH  25  26
HETATM   26  C10 UNL     1      36.011  25.703  42.647  1.00  0.00     0.031 C 
BRANCH  26  27
HETATM   27  C20 UNL     1      36.430  26.769  41.648  1.00  0.00     0.222 C 
HETATM   28  F1  UNL     1      36.027  26.400  40.404  1.00  0.00    -0.255 F 
ENDBRANCH  26  27
ENDBRANCH  25  26
ENDBRANCH  24  25
ENDBRANCH  23  24
ENDBRANCH   4  23
TORSDOF 8
