REMARK  4 active torsions:
REMARK  status: ('A' for Active; 'I' for Inactive)
REMARK    1  A    between atoms: C3_3  and  N2_17 
REMARK    2  A    between atoms: C8_11  and  S3_13 
REMARK    3  A    between atoms: S3_13  and  N1_14 
REMARK    4  A    between atoms: N2_17  and  C9_18 
ROOT
HETATM    1  C1  UNL     1      31.597  25.530  39.454  1.00  0.00     0.112 C 
HETATM    2  C2  UNL     1      30.435  25.848  38.522  1.00  0.00     0.049 A 
HETATM    3  C3  UNL     1      30.566  27.094  37.763  1.00  0.00     0.113 A 
HETATM    4  C4  UNL     1      30.472  28.284  38.733  1.00  0.00    -0.005 A 
HETATM    5  C5  UNL     1      30.784  28.144  40.052  1.00  0.00     0.110 A 
HETATM    6  S1  UNL     1      31.331  26.650  40.823  1.00  0.00     0.186 S 
HETATM    7  O1  UNL     1      30.173  26.109  41.603  1.00  0.00    -0.222 OA
HETATM    8  O2  UNL     1      32.540  26.864  41.645  1.00  0.00    -0.222 OA
HETATM    9  C6  UNL     1      31.380  24.136  40.004  1.00  0.00     0.026 C 
HETATM   10  C7  UNL     1      30.078  29.535  38.337  1.00  0.00     0.043 A 
HETATM   11  C8  UNL     1      30.037  30.504  39.285  1.00  0.00     0.116 A 
HETATM   12  S2  UNL     1      30.529  29.719  40.694  1.00  0.00    -0.065 SA
HETATM   13 CL1  UNL     1      30.658  28.131  38.468  1.00  0.00    -0.145 Cl
HETATM   14  H17 UNL     1      30.911  26.810  38.178  1.00  0.00     0.145 HD
ENDROOT
BRANCH  11  15
HETATM   15  S3  UNL     1      29.580  32.203  39.102  1.00  0.00     0.245 S 
HETATM   16  O3  UNL     1      28.421  32.323  38.178  1.00  0.00    -0.206 OA
HETATM   17  O4  UNL     1      29.139  32.716  40.464  1.00  0.00    -0.206 OA
BRANCH  15  18
HETATM   18  N1  UNL     1      30.881  33.161  38.583  1.00  0.00    -0.225 NA
HETATM   19  H9  UNL     1      31.811  32.784  38.787  1.00  0.00     0.136 HD
HETATM   20  H10 UNL     1      30.771  34.176  38.813  1.00  0.00     0.136 HD
ENDBRANCH  15  18
ENDBRANCH  11  15
BRANCH   3  21
HETATM   21  N2  UNL     1      31.628  27.269  36.857  1.00  0.00    -0.413 N 
HETATM   22  H11 UNL     1      32.458  26.650  37.003  1.00  0.00     0.153 HD
BRANCH  21  23
HETATM   23  C9  UNL     1      31.319  27.399  35.477  1.00  0.00     0.110 C 
HETATM   24  C10 UNL     1      30.541  26.312  34.834  1.00  0.00     0.026 C 
ENDBRANCH  21  23
ENDBRANCH   3  21
TORSDOF 4
