REMARK  5 active torsions:
REMARK  status: ('A' for Active; 'I' for Inactive)
REMARK    1  A    between atoms: C2_2  and  O1_25 
REMARK    2  A    between atoms: C17_17  and  C18_18 
REMARK    3  A    between atoms: C18_18  and  C19_19 
REMARK    4  A    between atoms: C19_19  and  C20_20 
REMARK    5  A    between atoms: C20_20  and  C21_21 
ROOT
HETATM    1  C1  UNL     1      27.356  33.116  36.675  1.00  0.00     0.033 C 
HETATM    2  C2  UNL     1      27.883  32.836  35.272  1.00  0.00     0.122 C 
HETATM    3  C3  UNL     1      27.937  31.333  34.996  1.00  0.00     0.066 C 
HETATM    4  C4  UNL     1      28.706  30.583  36.062  1.00  0.00    -0.072 C 
HETATM    5  C5  UNL     1      28.316  30.859  37.522  1.00  0.00    -0.017 C 
HETATM    6  C6  UNL     1      28.191  32.397  37.735  1.00  0.00     0.016 C 
HETATM    7  C7  UNL     1      29.684  29.728  35.716  1.00  0.00    -0.023 C 
HETATM    8  C8  UNL     1      30.490  28.918  36.682  1.00  0.00     0.033 C 
HETATM    9  C9  UNL     1      29.903  28.891  38.103  1.00  0.00    -0.001 C 
HETATM   10  C10 UNL     1      29.421  30.310  38.511  1.00  0.00     0.003 C 
HETATM   11  C11 UNL     1      30.947  28.396  39.112  1.00  0.00    -0.001 C 
HETATM   12  C12 UNL     1      30.433  28.330  40.571  1.00  0.00    -0.036 C 
HETATM   13  C13 UNL     1      30.068  29.775  40.962  1.00  0.00     0.010 C 
HETATM   14  C14 UNL     1      29.026  30.386  40.009  1.00  0.00     0.007 C 
HETATM   15  C15 UNL     1      31.571  27.030  38.878  1.00  0.00     0.006 C 
HETATM   16  C16 UNL     1      32.196  26.677  40.232  1.00  0.00     0.006 C 
HETATM   17  C17 UNL     1      31.699  27.735  41.265  1.00  0.00    -0.002 C 
HETATM   18  C25 UNL     1      26.944  30.191  37.785  1.00  0.00     0.020 C 
HETATM   19  C26 UNL     1      29.213  27.395  40.752  1.00  0.00     0.016 C 
ENDROOT
BRANCH  17  20
HETATM   20  C18 UNL     1      31.592  27.139  42.701  1.00  0.00    -0.014 C 
HETATM   21  C24 UNL     1      31.581  28.225  43.781  1.00  0.00     0.010 C 
BRANCH  20  22
HETATM   22  C19 UNL     1      32.760  26.145  42.952  1.00  0.00     0.008 C 
BRANCH  22  23
HETATM   23  C20 UNL     1      34.039  26.796  43.491  1.00  0.00     0.028 C 
BRANCH  23  24
HETATM   24  C21 UNL     1      35.187  25.822  43.456  1.00  0.00    -0.025 C 
HETATM   25  C22 UNL     1      36.042  25.579  42.443  1.00  0.00    -0.091 C 
HETATM   26  C23 UNL     1      37.135  24.552  42.597  1.00  0.00     0.042 C 
HETATM   27  C27 UNL     1      36.032  26.270  41.108  1.00  0.00     0.042 C 
ENDBRANCH  23  24
ENDBRANCH  22  23
ENDBRANCH  20  22
ENDBRANCH  17  20
BRANCH   2  28
HETATM   28  O1  UNL     1      27.021  33.476  34.333  1.00  0.00    -0.395 OA
HETATM   29  H35 UNL     1      26.343  33.955  34.840  1.00  0.00     0.210 HD
ENDBRANCH   2  28
TORSDOF 5
