REMARK  8 active torsions:
REMARK  status: ('A' for Active; 'I' for Inactive)
REMARK    1  A    between atoms: C7_7  and  C12_16 
REMARK    2  A    between atoms: C8_8  and  C10_12 
REMARK    3  A    between atoms: C9_9  and  N1_11 
REMARK    4  A    between atoms: C10_12  and  O2_13 
REMARK    5  A    between atoms: O2_13  and  C11_15 
REMARK    6  A    between atoms: C12_16  and  C13_17 
REMARK    7  A    between atoms: C13_17  and  O4_18 
REMARK    8  A    between atoms: O4_18  and  C14_20 
ROOT
HETATM    1  C12 UNL     1      30.574  29.768  37.802  1.00  0.00     0.205 C 
HETATM    2  C17 UNL     1      30.328  31.193  38.073  1.00  0.00     0.075 C 
HETATM    3  N2  UNL     1      30.147  32.317  38.304  1.00  0.00    -0.196 NA
ENDROOT
BRANCH   1   4
HETATM    4  C7  UNL     1      29.850  28.832  38.809  1.00  0.00     0.091 C 
HETATM    5  C4  UNL     1      28.750  29.581  39.550  1.00  0.00    -0.012 A 
HETATM    6  C3  UNL     1      27.440  29.682  39.058  1.00  0.00     0.034 A 
HETATM    7  C5  UNL     1      29.075  30.217  40.751  1.00  0.00     0.084 A 
HETATM    8  C2  UNL     1      26.495  30.438  39.754  1.00  0.00     0.034 A 
HETATM    9  C1  UNL     1      26.839  31.098  40.934  1.00  0.00     0.026 A 
HETATM   10 CL1  UNL     1      24.890  30.562  39.148  1.00  0.00    -0.084 Cl
HETATM   11  C6  UNL     1      28.137  30.988  41.434  1.00  0.00     0.039 A 
HETATM   12  O1  UNL     1      30.326  30.090  41.303  1.00  0.00    -0.298 OA
HETATM   13  C9  UNL     1      31.048  28.935  40.996  1.00  0.00     0.134 C 
HETATM   14  C8  UNL     1      30.824  28.264  39.845  1.00  0.00     0.073 C 
BRANCH  13  15
HETATM   15  N1  UNL     1      31.954  28.612  41.973  1.00  0.00    -0.282 NA
HETATM   16  H5  UNL     1      32.924  28.762  41.698  1.00  0.00     0.126 HD
HETATM   17  H6  UNL     1      31.782  27.693  42.372  1.00  0.00     0.126 HD
ENDBRANCH  13  15
BRANCH  14  18
HETATM   18  C10 UNL     1      31.444  26.962  39.477  1.00  0.00     0.293 C 
HETATM   19  O3  UNL     1      31.189  26.397  38.422  1.00  0.00    -0.259 OA
BRANCH  18  20
HETATM   20  O2  UNL     1      32.273  26.481  40.436  1.00  0.00    -0.318 OA
BRANCH  20  21
HETATM   21  C11 UNL     1      31.977  25.159  40.915  1.00  0.00     0.174 C 
HETATM   22  C16 UNL     1      30.907  25.220  41.989  1.00  0.00     0.034 C 
ENDBRANCH  20  21
ENDBRANCH  18  20
ENDBRANCH  14  18
ENDBRANCH   1   4
BRANCH   1  23
HETATM   23  C13 UNL     1      30.169  29.471  36.375  1.00  0.00     0.277 C 
HETATM   24  O5  UNL     1      29.260  30.064  35.805  1.00  0.00    -0.264 OA
BRANCH  23  25
HETATM   25  O4  UNL     1      30.958  28.521  35.806  1.00  0.00    -0.321 OA
BRANCH  25  26
HETATM   26  C14 UNL     1      30.445  27.900  34.617  1.00  0.00     0.174 C 
HETATM   27  C15 UNL     1      30.489  26.391  34.758  1.00  0.00     0.034 C 
ENDBRANCH  25  26
ENDBRANCH  23  25
ENDBRANCH   1  23
TORSDOF 8
