REMARK  10 active torsions:
REMARK  status: ('A' for Active; 'I' for Inactive)
REMARK    1  A    between atoms: C1_1  and  C2_2 
REMARK       I    between atoms: C1_1  and  N1_4 
REMARK    2  A    between atoms: N1_4  and  C11_15 
REMARK    3  A    between atoms: N3_6  and  C9_13 
REMARK    4  A    between atoms: C9_13  and  C10_14 
REMARK    5  A    between atoms: C10_14  and  C16_22 
REMARK    6  A    between atoms: C11_15  and  C12_16 
REMARK    7  A    between atoms: C11_15  and  C13_17 
REMARK       I    between atoms: C13_17  and  N4_18 
REMARK    8  A    between atoms: C16_22  and  C17_23 
REMARK    9  A    between atoms: C17_23  and  C18_24 
REMARK   10  A    between atoms: C18_24  and  O3_26 
ROOT
HETATM    1  C2  UNL     1      30.930  27.944  39.490  1.00  0.00     0.157 A 
HETATM    2  N2  UNL     1      31.247  28.258  40.759  1.00  0.00    -0.166 NA
HETATM    3  N3  UNL     1      31.525  27.078  41.338  1.00  0.00    -0.268 N 
HETATM    4  C3  UNL     1      31.395  25.997  40.504  1.00  0.00     0.065 A 
HETATM    5  C4  UNL     1      30.989  26.530  39.282  1.00  0.00     0.028 A 
HETATM    6  C5  UNL     1      31.578  24.621  40.707  1.00  0.00     0.032 A 
HETATM    7  C6  UNL     1      31.330  23.768  39.628  1.00  0.00     0.002 A 
HETATM    8  C7  UNL     1      30.905  24.270  38.401  1.00  0.00     0.001 A 
HETATM    9  C8  UNL     1      30.725  25.645  38.213  1.00  0.00     0.016 A 
ENDROOT
BRANCH   1  10
HETATM   10  C1  UNL     1      30.585  28.994  38.518  1.00  0.00     0.273 C 
HETATM   11  O1  UNL     1      31.006  29.009  37.362  1.00  0.00    -0.266 OA
HETATM   12  N1  UNL     1      29.727  29.967  38.996  1.00  0.00    -0.342 N 
HETATM   13  H1  UNL     1      29.568  29.998  39.995  1.00  0.00     0.163 HD
BRANCH  12  14
HETATM   14  C11 UNL     1      29.497  31.196  38.243  1.00  0.00     0.184 C 
BRANCH  14  15
HETATM   15  C12 UNL     1      28.096  31.230  37.559  1.00  0.00    -0.022 C 
HETATM   16  C14 UNL     1      27.134  30.294  38.323  1.00  0.00     0.017 C 
HETATM   17  C15 UNL     1      28.193  30.717  36.108  1.00  0.00     0.017 C 
HETATM   18  C19 UNL     1      27.481  32.643  37.535  1.00  0.00     0.017 C 
ENDBRANCH  14  15
BRANCH  14  19
HETATM   19  C13 UNL     1      29.723  32.352  39.240  1.00  0.00     0.239 C 
HETATM   20  N4  UNL     1      30.528  33.369  38.808  1.00  0.00    -0.368 N 
HETATM   21  H11 UNL     1      31.239  33.182  38.111  1.00  0.00     0.159 HD
HETATM   22  H12 UNL     1      30.765  34.058  39.512  1.00  0.00     0.159 HD
HETATM   23  O2  UNL     1      29.203  32.400  40.353  1.00  0.00    -0.271 OA
ENDBRANCH  14  19
ENDBRANCH  12  14
ENDBRANCH   1  10
BRANCH   3  24
HETATM   24  C9  UNL     1      31.910  27.062  42.739  1.00  0.00     0.151 C 
BRANCH  24  25
HETATM   25  C10 UNL     1      33.416  27.240  42.917  1.00  0.00     0.022 C 
BRANCH  25  26
HETATM   26  C16 UNL     1      34.197  25.930  42.794  1.00  0.00     0.012 C 
BRANCH  26  27
HETATM   27  C17 UNL     1      35.713  26.125  42.803  1.00  0.00     0.110 C 
BRANCH  27  28
HETATM   28  C18 UNL     1      36.182  26.853  41.572  1.00  0.00     0.139 C 
HETATM   29  O4  UNL     1      36.953  27.796  41.517  1.00  0.00    -0.650 OA
BRANCH  28  30
HETATM   30  O3  UNL     1      35.660  26.326  40.447  1.00  0.00    -0.776 OA
HETATM   31  H26 UNL     1      36.345  26.489  39.765  1.00  0.00     0.167 HD
ENDBRANCH  28  30
ENDBRANCH  27  28
ENDBRANCH  26  27
ENDBRANCH  25  26
ENDBRANCH  24  25
ENDBRANCH   3  24
TORSDOF 10
