REMARK  6 active torsions:
REMARK  status: ('A' for Active; 'I' for Inactive)
REMARK    1  A    between atoms: C1_1  and  C2_2 
REMARK    2  A    between atoms: C1_1  and  C3_4 
REMARK    3  A    between atoms: N1_10  and  C19_22 
REMARK    4  A    between atoms: C19_22  and  C20_23 
REMARK    5  A    between atoms: C20_23  and  C21_24 
REMARK    6  A    between atoms: C21_24  and  C22_25 
ROOT
HETATM    1  C2  UNL     1      31.218  27.110  39.969  1.00  0.00     0.182 A 
HETATM    2  N1  UNL     1      30.808  28.389  39.644  1.00  0.00    -0.326 N 
HETATM    3  C9  UNL     1      30.726  28.485  38.272  1.00  0.00     0.065 A 
HETATM    4  C10 UNL     1      31.128  27.233  37.819  1.00  0.00     0.086 A 
HETATM    5  N2  UNL     1      31.428  26.406  38.868  1.00  0.00    -0.225 NA
HETATM    6  C11 UNL     1      30.350  29.515  37.399  1.00  0.00     0.032 A 
HETATM    7  C12 UNL     1      30.399  29.241  36.028  1.00  0.00     0.002 A 
HETATM    8  C13 UNL     1      30.805  27.992  35.553  1.00  0.00     0.002 A 
HETATM    9  C14 UNL     1      31.172  26.975  36.442  1.00  0.00     0.034 A 
ENDROOT
BRANCH   1  10
HETATM   10  C1  UNL     1      31.402  26.570  41.310  1.00  0.00     0.228 C 
HETATM   11  O1  UNL     1      30.836  25.560  41.728  1.00  0.00    -0.283 OA
BRANCH  10  12
HETATM   12  C3  UNL     1      32.340  27.266  42.233  1.00  0.00     0.029 A 
HETATM   13  C4  UNL     1      33.747  27.172  42.056  1.00  0.00    -0.012 A 
HETATM   14  C5  UNL     1      34.577  27.890  42.954  1.00  0.00    -0.025 A 
HETATM   15  C15 UNL     1      34.380  26.402  41.050  1.00  0.00     0.013 A 
HETATM   16  C6  UNL     1      34.002  28.665  43.975  1.00  0.00     0.012 A 
HETATM   17  C18 UNL     1      35.974  27.822  42.824  1.00  0.00     0.012 A 
HETATM   18  C7  UNL     1      32.619  28.747  44.127  1.00  0.00     0.002 A 
HETATM   19  C8  UNL     1      31.788  28.052  43.257  1.00  0.00     0.016 A 
HETATM   20  C17 UNL     1      36.567  27.056  41.822  1.00  0.00     0.001 A 
HETATM   21  C16 UNL     1      35.770  26.345  40.935  1.00  0.00     0.001 A 
ENDBRANCH  10  12
ENDBRANCH   1  10
BRANCH   2  22
HETATM   22  C19 UNL     1      30.517  29.469  40.573  1.00  0.00     0.131 C 
BRANCH  22  23
HETATM   23  C20 UNL     1      29.014  29.692  40.745  1.00  0.00     0.020 C 
BRANCH  23  24
HETATM   24  C21 UNL     1      28.664  31.107  41.210  1.00  0.00     0.001 C 
BRANCH  24  25
HETATM   25  C22 UNL     1      27.172  31.307  41.475  1.00  0.00    -0.004 C 
HETATM   26  C23 UNL     1      26.340  30.224  40.806  1.00  0.00     0.005 C 
ENDBRANCH  24  25
ENDBRANCH  23  24
ENDBRANCH  22  23
ENDBRANCH   2  22
TORSDOF 6
