REMARK  4 active torsions:
REMARK  status: ('A' for Active; 'I' for Inactive)
REMARK    1  A    between atoms: C5_5  and  C8_8 
REMARK    2  A    between atoms: C8_8  and  C9_9 
REMARK       I    between atoms: C9_9  and  N1_10 
REMARK    3  A    between atoms: C12_14  and  N2_17 
REMARK    4  A    between atoms: C15_19  and  C17_23 
ROOT
HETATM    1  C9  UNL     1      31.494  27.775  42.025  1.00  0.00     0.233 C 
HETATM    2  N1  UNL     1      30.659  28.444  41.117  1.00  0.00    -0.351 N 
HETATM    3  O1  UNL     1      31.752  28.216  43.142  1.00  0.00    -0.272 OA
HETATM    4  C10 UNL     1      30.653  28.133  39.690  1.00  0.00     0.128 C 
HETATM    5  C11 UNL     1      29.356  28.548  39.009  1.00  0.00     0.047 C 
HETATM    6  C12 UNL     1      29.017  30.008  39.315  1.00  0.00     0.119 C 
HETATM    7  C13 UNL     1      28.951  30.217  40.829  1.00  0.00     0.047 C 
HETATM    8  C14 UNL     1      30.258  29.799  41.486  1.00  0.00     0.128 C 
ENDROOT
BRANCH   1   9
HETATM    9  C8  UNL     1      32.100  26.444  41.619  1.00  0.00     0.068 A 
HETATM   10  C23 UNL     1      31.430  25.654  40.494  1.00  0.00     0.026 A 
HETATM   11  C24 UNL     1      31.231  25.208  41.903  1.00  0.00     0.026 A 
BRANCH   9  12
HETATM   12  C5  UNL     1      33.593  26.267  41.910  1.00  0.00    -0.040 A 
HETATM   13  C4  UNL     1      34.078  25.840  43.157  1.00  0.00     0.009 A 
HETATM   14  C3  UNL     1      35.448  25.676  43.396  1.00  0.00     0.007 A 
HETATM   15  C2  UNL     1      36.379  25.946  42.391  1.00  0.00    -0.062 A 
HETATM   16  C1  UNL     1      35.918  26.358  41.139  1.00  0.00     0.007 A 
HETATM   17  C7  UNL     1      37.844  25.740  42.634  1.00  0.00     0.048 C 
HETATM   18  C6  UNL     1      34.548  26.519  40.908  1.00  0.00     0.009 A 
ENDBRANCH   9  12
ENDBRANCH   1   9
BRANCH   6  19
HETATM   19  N2  UNL     1      27.793  30.408  38.644  1.00  0.00    -0.206 N 
HETATM   20  N3  UNL     1      26.563  30.333  39.238  1.00  0.00    -0.141 NA
HETATM   21  C15 UNL     1      25.758  30.595  38.255  1.00  0.00     0.204 A 
HETATM   22  O2  UNL     1      26.338  30.804  37.051  1.00  0.00    -0.238 OA
HETATM   23  C16 UNL     1      27.669  30.644  37.294  1.00  0.00     0.390 A 
HETATM   24  O3  UNL     1      28.545  30.691  36.448  1.00  0.00    -0.236 OA
BRANCH  21  25
HETATM   25  C17 UNL     1      24.293  30.676  38.297  1.00  0.00     0.019 A 
HETATM   26  C18 UNL     1      23.616  30.137  39.399  1.00  0.00     0.016 A 
HETATM   27  C19 UNL     1      22.223  30.200  39.462  1.00  0.00     0.001 A 
HETATM   28  C20 UNL     1      21.504  30.802  38.430  1.00  0.00     0.000 A 
HETATM   29  C21 UNL     1      22.174  31.339  37.331  1.00  0.00     0.001 A 
HETATM   30  C22 UNL     1      23.567  31.279  37.262  1.00  0.00     0.016 A 
ENDBRANCH  21  25
ENDBRANCH   6  19
TORSDOF 4
