REMARK  8 active torsions:
REMARK  status: ('A' for Active; 'I' for Inactive)
REMARK    1  A    between atoms: C1_2  and  C20_26 
REMARK    2  A    between atoms: C5_7  and  C16_20 
REMARK    3  A    between atoms: C12_15  and  O1_18 
REMARK    4  A    between atoms: C16_20  and  C17_21 
REMARK    5  A    between atoms: C20_26  and  C21_27 
REMARK    6  A    between atoms: C21_27  and  C22_28 
REMARK    7  A    between atoms: C22_28  and  O4_29 
REMARK    8  A    between atoms: O4_29  and  C23_31 
ROOT
HETATM    1  N1  UNL     1      28.801  30.700  35.688  1.00  0.00    -0.346 N 
HETATM    2  C1  UNL     1      28.720  31.955  36.432  1.00  0.00     0.177 C 
HETATM    3  C2  UNL     1      28.381  31.626  37.909  1.00  0.00     0.244 C 
HETATM    4  N2  UNL     1      29.009  30.478  38.406  1.00  0.00    -0.326 N 
HETATM    5  C3  UNL     1      30.089  29.838  37.591  1.00  0.00     0.184 C 
HETATM    6  C4  UNL     1      29.638  29.698  36.129  1.00  0.00     0.241 C 
HETATM    7  C5  UNL     1      28.786  30.124  39.829  1.00  0.00     0.139 C 
HETATM    8  C6  UNL     1      29.965  29.352  40.320  1.00  0.00     0.040 A 
HETATM    9  C7  UNL     1      30.799  28.562  39.562  1.00  0.00    -0.018 A 
HETATM   10  C8  UNL     1      30.580  28.465  38.101  1.00  0.00     0.076 C 
HETATM   11  N3  UNL     1      30.429  29.337  41.607  1.00  0.00    -0.357 N 
HETATM   12  C9  UNL     1      31.522  28.502  41.698  1.00  0.00     0.046 A 
HETATM   13  C10 UNL     1      31.777  28.000  40.419  1.00  0.00    -0.001 A 
HETATM   14  C11 UNL     1      32.305  28.157  42.807  1.00  0.00     0.067 A 
HETATM   15  C12 UNL     1      33.380  27.280  42.616  1.00  0.00     0.070 A 
HETATM   16  C13 UNL     1      33.655  26.772  41.347  1.00  0.00     0.038 A 
HETATM   17  C14 UNL     1      32.865  27.126  40.243  1.00  0.00     0.017 A 
HETATM   18  O2  UNL     1      30.060  28.855  35.343  1.00  0.00    -0.271 OA
HETATM   19  O3  UNL     1      27.687  32.361  38.608  1.00  0.00    -0.271 OA
HETATM   20  H1  UNL     1      28.677  30.701  34.682  1.00  0.00     0.163 HD
HETATM   21  H7  UNL     1      30.030  29.842  42.387  1.00  0.00     0.166 HD
ENDROOT
BRANCH   2  22
HETATM   22  C20 UNL     1      27.676  32.883  35.796  1.00  0.00     0.044 C 
BRANCH  22  23
HETATM   23  C21 UNL     1      27.946  33.198  34.320  1.00  0.00     0.113 C 
BRANCH  23  24
HETATM   24  C22 UNL     1      27.755  34.646  33.918  1.00  0.00     0.259 C 
HETATM   25  O5  UNL     1      26.884  35.358  34.398  1.00  0.00    -0.265 OA
BRANCH  24  26
HETATM   26  O4  UNL     1      28.635  35.018  32.954  1.00  0.00    -0.311 OA
BRANCH  26  27
HETATM   27  C23 UNL     1      28.174  35.502  31.665  1.00  0.00     0.060 C 
HETATM   28  C24 UNL     1      29.273  35.079  30.678  1.00  0.00     0.045 C 
HETATM   29  C25 UNL     1      28.063  37.030  31.646  1.00  0.00     0.045 C 
HETATM   30  C26 UNL     1      26.860  34.824  31.262  1.00  0.00     0.045 C 
ENDBRANCH  26  27
ENDBRANCH  24  26
ENDBRANCH  23  24
ENDBRANCH  22  23
ENDBRANCH   2  22
BRANCH   7  31
HETATM   31  C16 UNL     1      27.460  29.336  39.948  1.00  0.00     0.035 C 
BRANCH  31  32
HETATM   32  C17 UNL     1      26.438  29.940  40.936  1.00  0.00    -0.020 C 
HETATM   33  C18 UNL     1      25.143  30.345  40.228  1.00  0.00     0.009 C 
HETATM   34  C19 UNL     1      27.029  31.173  41.630  1.00  0.00     0.009 C 
ENDBRANCH  31  32
ENDBRANCH   7  31
BRANCH  15  35
HETATM   35  O1  UNL     1      34.084  27.002  43.759  1.00  0.00    -0.356 OA
HETATM   36  C15 UNL     1      35.021  27.980  44.192  1.00  0.00     0.210 C 
ENDBRANCH  15  35
TORSDOF 8
