REMARK  4 active torsions:
REMARK  status: ('A' for Active; 'I' for Inactive)
REMARK       I    between atoms: N1_9  and  C10_11 
REMARK    1  A    between atoms: C10_11  and  C11_13 
REMARK    2  A    between atoms: C13_16  and  N3_18 
REMARK    3  A    between atoms: N3_18  and  C14_19 
REMARK    4  A    between atoms: C17_22  and  O2_25 
ROOT
HETATM    1  C11 UNL     1      31.195  26.513  38.834  1.00  0.00     0.134 A 
HETATM    2  C12 UNL     1      30.825  25.191  38.652  1.00  0.00     0.090 A 
HETATM    3  S1  UNL     1      31.422  24.217  39.919  1.00  0.00    -0.061 SA
HETATM    4  C13 UNL     1      32.201  25.589  40.617  1.00  0.00     0.171 A 
HETATM    5  N2  UNL     1      31.974  26.715  39.973  1.00  0.00    -0.218 NA
ENDROOT
BRANCH   1   6
HETATM    6  C10 UNL     1      30.812  27.570  37.872  1.00  0.00     0.273 C 
HETATM    7  N1  UNL     1      30.195  28.744  38.323  1.00  0.00    -0.342 N 
HETATM    8  C8  UNL     1      30.079  29.860  37.388  1.00  0.00     0.131 C 
HETATM    9  C9  UNL     1      29.928  29.037  39.731  1.00  0.00     0.165 C 
HETATM   10  C7  UNL     1      28.735  30.569  37.518  1.00  0.00     0.059 C 
HETATM   11  C1  UNL     1      28.495  30.993  38.941  1.00  0.00    -0.049 A 
HETATM   12  C2  UNL     1      29.068  30.256  39.990  1.00  0.00    -0.034 A 
HETATM   13  C6  UNL     1      27.671  32.090  39.226  1.00  0.00     0.008 A 
HETATM   14  C3  UNL     1      28.822  30.649  41.315  1.00  0.00     0.009 A 
HETATM   15  C4  UNL     1      28.013  31.751  41.590  1.00  0.00     0.001 A 
HETATM   16  C5  UNL     1      27.436  32.470  40.547  1.00  0.00     0.001 A 
HETATM   17  O1  UNL     1      31.044  27.400  36.672  1.00  0.00    -0.266 OA
ENDBRANCH   1   6
BRANCH   4  18
HETATM   18  N3  UNL     1      32.897  25.581  41.777  1.00  0.00    -0.335 N 
HETATM   19  H12 UNL     1      32.318  25.556  42.608  1.00  0.00     0.168 HD
BRANCH  18  20
HETATM   20  C14 UNL     1      34.208  26.014  42.055  1.00  0.00     0.034 A 
HETATM   21  C15 UNL     1      35.106  26.478  41.092  1.00  0.00     0.032 A 
HETATM   22  C16 UNL     1      36.406  26.861  41.445  1.00  0.00     0.039 A 
HETATM   23  C17 UNL     1      36.841  26.780  42.767  1.00  0.00     0.068 A 
HETATM   24  C18 UNL     1      35.962  26.313  43.738  1.00  0.00     0.039 A 
HETATM   25  C19 UNL     1      34.660  25.934  43.382  1.00  0.00     0.032 A 
BRANCH  23  26
HETATM   26  O2  UNL     1      38.132  27.183  42.972  1.00  0.00    -0.356 OA
HETATM   27  C20 UNL     1      38.323  28.514  43.435  1.00  0.00     0.210 C 
ENDBRANCH  23  26
ENDBRANCH  18  20
ENDBRANCH   4  18
TORSDOF 4
