REMARK  15 active torsions:
REMARK  status: ('A' for Active; 'I' for Inactive)
REMARK    1  A    between atoms: C5_5  and  C7_7 
REMARK    2  A    between atoms: C7_7  and  O1_8 
REMARK    3  A    between atoms: O1_8  and  C8_9 
REMARK       I    between atoms: C8_9  and  N1_10 
REMARK    4  A    between atoms: N1_10  and  C9_12 
REMARK    5  A    between atoms: C9_12  and  C10_13 
REMARK    6  A    between atoms: C9_12  and  C14_17 
REMARK    7  A    between atoms: C10_13  and  C11_14 
REMARK       I    between atoms: C14_17  and  N2_19 
REMARK    8  A    between atoms: N2_19  and  C15_20 
REMARK    9  A    between atoms: C15_20  and  C16_21 
REMARK   10  A    between atoms: C15_20  and  C17_22 
REMARK       I    between atoms: C16_21  and  N3_26 
REMARK   11  A    between atoms: C17_22  and  C18_23 
REMARK   12  A    between atoms: N3_26  and  C21_28 
REMARK   13  A    between atoms: C21_28  and  C22_29 
REMARK   14  A    between atoms: C21_28  and  C23_30 
REMARK   15  A    between atoms: C22_29  and  C24_32 
ROOT
HETATM    1  C14 UNL     1      31.073  28.937  40.656  1.00  0.00     0.241 C 
HETATM    2  O3  UNL     1      30.491  29.445  41.613  1.00  0.00    -0.271 OA
HETATM    3  N2  UNL     1      32.042  27.963  40.791  1.00  0.00    -0.346 N 
HETATM    4  H19 UNL     1      32.678  27.849  40.010  1.00  0.00     0.163 HD
ENDROOT
BRANCH   1   5
HETATM    5  C9  UNL     1      30.815  29.373  39.197  1.00  0.00     0.179 C 
BRANCH   5   6
HETATM    6  N1  UNL     1      31.275  28.303  38.326  1.00  0.00    -0.324 N 
HETATM    7  C8  UNL     1      30.520  27.185  38.133  1.00  0.00     0.361 C 
HETATM    8  O2  UNL     1      29.566  26.850  38.818  1.00  0.00    -0.238 OA
HETATM    9  H8  UNL     1      31.809  28.565  37.506  1.00  0.00     0.165 HD
BRANCH   7  10
HETATM   10  O1  UNL     1      30.993  26.512  37.061  1.00  0.00    -0.299 OA
BRANCH  10  11
HETATM   11  C7  UNL     1      31.499  27.363  36.031  1.00  0.00     0.219 C 
BRANCH  11  12
HETATM   12  C5  UNL     1      30.531  27.327  34.877  1.00  0.00    -0.034 A 
HETATM   13  C4  UNL     1      30.014  26.110  34.412  1.00  0.00     0.009 A 
HETATM   14  C3  UNL     1      29.108  26.085  33.351  1.00  0.00     0.001 A 
HETATM   15  C2  UNL     1      28.705  27.276  32.748  1.00  0.00     0.000 A 
HETATM   16  C1  UNL     1      29.203  28.493  33.209  1.00  0.00     0.001 A 
HETATM   17  C6  UNL     1      30.109  28.519  34.271  1.00  0.00     0.009 A 
ENDBRANCH  11  12
ENDBRANCH  10  11
ENDBRANCH   7  10
ENDBRANCH   5   6
BRANCH   5  18
HETATM   18  C10 UNL     1      29.316  29.654  39.001  1.00  0.00     0.038 C 
BRANCH  18  19
HETATM   19  C11 UNL     1      29.007  31.000  38.312  1.00  0.00    -0.020 C 
HETATM   20  C12 UNL     1      28.761  30.769  36.819  1.00  0.00     0.009 C 
HETATM   21  C13 UNL     1      30.111  32.039  38.494  1.00  0.00     0.009 C 
ENDBRANCH  18  19
ENDBRANCH   5  18
ENDBRANCH   1   5
BRANCH   3  22
HETATM   22  C15 UNL     1      32.601  27.636  42.098  1.00  0.00     0.177 C 
BRANCH  22  23
HETATM   23  C16 UNL     1      34.124  27.419  41.953  1.00  0.00     0.241 C 
HETATM   24  N3  UNL     1      34.836  27.479  43.134  1.00  0.00    -0.349 N 
HETATM   25  H30 UNL     1      34.314  27.356  43.995  1.00  0.00     0.163 HD
HETATM   26  O4  UNL     1      34.662  27.208  40.865  1.00  0.00    -0.271 OA
BRANCH  24  27
HETATM   27  C21 UNL     1      36.239  27.079  43.182  1.00  0.00     0.146 C 
BRANCH  27  28
HETATM   28  C22 UNL     1      36.962  27.803  44.321  1.00  0.00     0.032 C 
BRANCH  28  29
HETATM   29  C24 UNL     1      38.354  28.334  43.967  1.00  0.00    -0.002 C 
HETATM   30  C25 UNL     1      38.719  28.158  42.501  1.00  0.00     0.005 C 
ENDBRANCH  28  29
ENDBRANCH  27  28
BRANCH  27  31
HETATM   31  C23 UNL     1      36.263  25.570  43.405  1.00  0.00     0.256 C 
HETATM   32  O5  UNL     1      36.966  24.795  42.759  1.00  0.00    -0.305 OA
ENDBRANCH  27  31
ENDBRANCH  24  27
ENDBRANCH  22  23
BRANCH  22  33
HETATM   33  C17 UNL     1      31.870  26.457  42.765  1.00  0.00     0.038 C 
BRANCH  33  34
HETATM   34  C18 UNL     1      30.780  25.730  41.946  1.00  0.00    -0.020 C 
HETATM   35  C19 UNL     1      29.690  25.222  42.896  1.00  0.00     0.009 C 
HETATM   36  C20 UNL     1      31.315  24.561  41.120  1.00  0.00     0.009 C 
ENDBRANCH  33  34
ENDBRANCH  22  33
ENDBRANCH   3  22
TORSDOF 15
