REMARK  8 active torsions:
REMARK  status: ('A' for Active; 'I' for Inactive)
REMARK    1  A    between atoms: C1_1  and  C2_2 
REMARK       I    between atoms: C1_1  and  N1_4 
REMARK    2  A    between atoms: N1_4  and  C3_5 
REMARK    3  A    between atoms: C3_5  and  C4_6 
REMARK    4  A    between atoms: C3_5  and  C5_7 
REMARK       I    between atoms: C5_7  and  N2_8 
REMARK    5  A    between atoms: N4_13  and  C14_20 
REMARK    6  A    between atoms: C14_20  and  C15_21 
REMARK    7  A    between atoms: C15_21  and  C16_22 
REMARK    8  A    between atoms: C16_22  and  C17_23 
ROOT
HETATM    1  C2  UNL     1      30.968  28.207  39.811  1.00  0.00     0.157 A 
HETATM    2  N3  UNL     1      31.441  28.473  41.043  1.00  0.00    -0.166 NA
HETATM    3  N4  UNL     1      31.786  27.277  41.543  1.00  0.00    -0.268 N 
HETATM    4  C8  UNL     1      31.563  26.225  40.691  1.00  0.00     0.065 A 
HETATM    5  C9  UNL     1      31.034  26.802  39.536  1.00  0.00     0.028 A 
HETATM    6  C10 UNL     1      31.771  24.844  40.818  1.00  0.00     0.032 A 
HETATM    7  C11 UNL     1      31.438  24.033  39.730  1.00  0.00     0.002 A 
HETATM    8  C12 UNL     1      30.925  24.583  38.559  1.00  0.00     0.001 A 
HETATM    9  C13 UNL     1      30.724  25.962  38.445  1.00  0.00     0.016 A 
ENDROOT
BRANCH   1  10
HETATM   10  C1  UNL     1      30.469  29.292  38.948  1.00  0.00     0.273 C 
HETATM   11  O1  UNL     1      30.919  29.529  37.828  1.00  0.00    -0.266 OA
HETATM   12  N1  UNL     1      29.471  30.065  39.502  1.00  0.00    -0.342 N 
HETATM   13  H1  UNL     1      29.266  29.978  40.493  1.00  0.00     0.163 HD
BRANCH  12  14
HETATM   14  C3  UNL     1      28.942  31.248  38.830  1.00  0.00     0.180 C 
BRANCH  14  15
HETATM   15  C4  UNL     1      27.402  31.183  38.711  1.00  0.00     0.009 C 
HETATM   16  C6  UNL     1      26.925  30.787  37.310  1.00  0.00     0.012 C 
HETATM   17  C7  UNL     1      26.771  30.263  39.759  1.00  0.00     0.012 C 
ENDBRANCH  14  15
BRANCH  14  18
HETATM   18  C5  UNL     1      29.464  32.465  39.618  1.00  0.00     0.238 C 
HETATM   19  N2  UNL     1      30.355  33.275  38.976  1.00  0.00    -0.368 N 
HETATM   20  H4  UNL     1      30.874  32.955  38.170  1.00  0.00     0.159 HD
HETATM   21  H5  UNL     1      30.764  34.019  39.529  1.00  0.00     0.159 HD
HETATM   22  O2  UNL     1      29.100  32.724  40.765  1.00  0.00    -0.271 OA
ENDBRANCH  14  18
ENDBRANCH  12  14
ENDBRANCH   1  10
BRANCH   3  23
HETATM   23  C14 UNL     1      32.344  27.223  42.878  1.00  0.00     0.154 C 
BRANCH  23  24
HETATM   24  C15 UNL     1      33.739  27.833  43.014  1.00  0.00     0.059 C 
BRANCH  24  25
HETATM   25  C16 UNL     1      34.834  26.819  43.344  1.00  0.00     0.171 C 
HETATM   26  F1  UNL     1      34.266  25.577  43.250  1.00  0.00    -0.249 F 
BRANCH  25  27
HETATM   27  C17 UNL     1      36.017  26.844  42.377  1.00  0.00     0.033 C 
HETATM   28  C18 UNL     1      35.605  26.392  40.983  1.00  0.00     0.008 C 
ENDBRANCH  25  27
ENDBRANCH  24  25
ENDBRANCH  23  24
ENDBRANCH   3  23
TORSDOF 8
