REMARK  6 active torsions:
REMARK  status: ('A' for Active; 'I' for Inactive)
REMARK    1  A    between atoms: N1_5  and  C6_7 
REMARK    2  A    between atoms: C6_7  and  C7_8 
REMARK    3  A    between atoms: C7_8  and  C14_20 
REMARK    4  A    between atoms: N2_9  and  S1_10 
REMARK    5  A    between atoms: S1_10  and  C8_11 
REMARK    6  A    between atoms: C17_23  and  N3_26 
ROOT
HETATM    1  C1  UNL     1      30.707  26.726  39.357  1.00  0.00     0.020 C 
HETATM    2  C2  UNL     1      31.607  27.474  40.343  1.00  0.00     0.009 C 
HETATM    3  C3  UNL     1      30.869  28.600  41.050  1.00  0.00     0.079 C 
HETATM    4  C4  UNL     1      30.233  29.563  40.040  1.00  0.00     0.115 C 
HETATM    5  N1  UNL     1      29.911  29.011  38.800  1.00  0.00    -0.368 N 
HETATM    6  C5  UNL     1      29.559  27.580  38.817  1.00  0.00     0.124 C 
HETATM    7  N2  UNL     1      30.018  30.746  40.503  1.00  0.00    -0.147 NA
ENDROOT
BRANCH   5   8
HETATM    8  C6  UNL     1      30.756  29.404  37.643  1.00  0.00     0.128 C 
BRANCH   8   9
HETATM    9  C7  UNL     1      30.640  28.398  36.493  1.00  0.00     0.058 C 
BRANCH   9  10
HETATM   10  C14 UNL     1      29.815  28.940  35.350  1.00  0.00    -0.057 A 
HETATM   11  C15 UNL     1      29.905  28.369  34.072  1.00  0.00     0.009 A 
HETATM   12  C16 UNL     1      29.151  28.882  33.014  1.00  0.00     0.036 A 
HETATM   13  C17 UNL     1      28.305  29.976  33.234  1.00  0.00     0.102 A 
HETATM   14  C18 UNL     1      28.211  30.560  34.504  1.00  0.00     0.036 A 
HETATM   15  C19 UNL     1      28.968  30.039  35.555  1.00  0.00     0.009 A 
BRANCH  13  16
HETATM   16  N3  UNL     1      27.512  30.517  32.123  1.00  0.00    -0.116 N 
HETATM   17  O3  UNL     1      26.786  29.731  31.497  1.00  0.00    -0.532 OA
HETATM   18  O4  UNL     1      27.615  31.727  31.875  1.00  0.00    -0.532 OA
ENDBRANCH  13  16
ENDBRANCH   9  10
ENDBRANCH   8   9
ENDBRANCH   5   8
BRANCH   7  19
HETATM   19  S1  UNL     1      29.185  31.893  39.733  1.00  0.00     0.284 S 
HETATM   20  O1  UNL     1      29.067  33.042  40.612  1.00  0.00    -0.198 OA
HETATM   21  O2  UNL     1      29.696  32.077  38.387  1.00  0.00    -0.198 OA
BRANCH  19  22
HETATM   22  C8  UNL     1      27.517  31.262  39.591  1.00  0.00     0.081 A 
HETATM   23  C9  UNL     1      26.819  30.872  40.738  1.00  0.00     0.027 A 
HETATM   24  C10 UNL     1      25.509  30.406  40.619  1.00  0.00     0.025 A 
HETATM   25  C11 UNL     1      24.911  30.328  39.359  1.00  0.00     0.034 A 
HETATM   26  C12 UNL     1      25.613  30.707  38.214  1.00  0.00     0.025 A 
HETATM   27 CL1  UNL     1      23.294  29.759  39.218  1.00  0.00    -0.084 Cl
HETATM   28  C13 UNL     1      26.924  31.176  38.326  1.00  0.00     0.027 A 
ENDBRANCH  19  22
ENDBRANCH   7  19
TORSDOF 6
