REMARK  7 active torsions:
REMARK  status: ('A' for Active; 'I' for Inactive)
REMARK    1  A    between atoms: C1_2  and  C6_10 
REMARK    2  A    between atoms: C3_5  and  C5_9 
REMARK    3  A    between atoms: C3_5  and  O3_12 
REMARK    4  A    between atoms: C5_9  and  C8_13 
REMARK    5  A    between atoms: C6_10  and  C15_21 
REMARK    6  A    between atoms: C12_17  and  O4_19 
REMARK    7  A    between atoms: C22_29  and  N4_30 
ROOT
HETATM    1  N1  UNL     1      30.591  26.678  39.208  1.00  0.00    -0.339 N 
HETATM    2  C1  UNL     1      30.930  28.105  38.995  1.00  0.00     0.183 C 
HETATM    3  C2  UNL     1      30.999  28.771  40.395  1.00  0.00     0.245 C 
HETATM    4  N2  UNL     1      31.601  27.994  41.394  1.00  0.00    -0.315 N 
HETATM    5  C3  UNL     1      32.363  26.798  41.002  1.00  0.00     0.223 C 
HETATM    6  C4  UNL     1      31.425  25.935  40.062  1.00  0.00     0.276 C 
HETATM    7  O1  UNL     1      31.470  24.704  40.024  1.00  0.00    -0.268 OA
HETATM    8  O2  UNL     1      30.649  29.933  40.596  1.00  0.00    -0.271 OA
HETATM    9  C7  UNL     1      31.689  28.542  42.734  1.00  0.00     0.156 C 
HETATM   10  C14 UNL     1      29.816  25.942  38.224  1.00  0.00     0.153 C 
ENDROOT
BRANCH   2  11
HETATM   11  C6  UNL     1      29.970  28.922  38.096  1.00  0.00     0.076 C 
BRANCH  11  12
HETATM   12  C15 UNL     1      30.142  28.711  36.609  1.00  0.00    -0.025 A 
HETATM   13  C16 UNL     1      31.050  27.842  36.030  1.00  0.00     0.096 A 
HETATM   14  N3  UNL     1      30.916  27.901  34.673  1.00  0.00    -0.365 N 
HETATM   15  C17 UNL     1      29.953  28.820  34.332  1.00  0.00     0.045 A 
HETATM   16  H19 UNL     1      31.451  27.358  34.010  1.00  0.00     0.165 HD
HETATM   17  C18 UNL     1      29.459  29.373  35.522  1.00  0.00     0.031 A 
HETATM   18  C19 UNL     1      29.497  29.201  33.059  1.00  0.00     0.030 A 
HETATM   19  C22 UNL     1      28.470  30.372  35.364  1.00  0.00     0.116 A 
HETATM   20  C21 UNL     1      27.986  30.774  34.112  1.00  0.00     0.037 A 
HETATM   21  C20 UNL     1      28.503  30.181  32.968  1.00  0.00     0.005 A 
BRANCH  19  22
HETATM   22  N4  UNL     1      27.934  31.016  36.533  1.00  0.00    -0.115 N 
HETATM   23  O5  UNL     1      26.900  30.540  37.019  1.00  0.00    -0.532 OA
HETATM   24  O6  UNL     1      28.566  31.985  36.977  1.00  0.00    -0.532 OA
ENDBRANCH  19  22
ENDBRANCH  11  12
ENDBRANCH   2  11
BRANCH   5  25
HETATM   25  C5  UNL     1      32.867  25.847  42.133  1.00  0.00     0.110 C 
BRANCH  25  26
HETATM   26  C8  UNL     1      34.294  25.993  42.630  1.00  0.00    -0.050 A 
HETATM   27  C9  UNL     1      35.340  25.253  42.059  1.00  0.00     0.007 A 
HETATM   28  C10 UNL     1      36.648  25.383  42.532  1.00  0.00     0.003 A 
HETATM   29  C11 UNL     1      36.929  26.241  43.594  1.00  0.00     0.036 A 
HETATM   30  C12 UNL     1      35.890  26.952  44.183  1.00  0.00     0.066 A 
HETATM   31  C13 UNL     1      34.584  26.828  43.719  1.00  0.00     0.043 A 
BRANCH  30  32
HETATM   32  O4  UNL     1      36.112  27.794  45.232  1.00  0.00    -0.361 OA
HETATM   33  H14 UNL     1      35.257  28.016  45.637  1.00  0.00     0.217 HD
ENDBRANCH  30  32
ENDBRANCH  25  26
ENDBRANCH   5  25
BRANCH   5  34
HETATM   34  O3  UNL     1      33.472  27.287  40.256  1.00  0.00    -0.363 OA
HETATM   35  H9  UNL     1      34.244  27.060  40.803  1.00  0.00     0.213 HD
ENDBRANCH   5  34
TORSDOF 7
