REMARK  4 active torsions:
REMARK  status: ('A' for Active; 'I' for Inactive)
REMARK    1  A    between atoms: C8_10  and  C21_27 
REMARK    2  A    between atoms: C8_10  and  O5_29 
REMARK    3  A    between atoms: C14_19  and  C19_24 
REMARK    4  A    between atoms: C17_22  and  O4_26 
ROOT
HETATM    1  C1  UNL     1      31.038  28.669  41.447  1.00  0.00     0.044 A 
HETATM    2  C2  UNL     1      31.659  27.849  40.578  1.00  0.00     0.002 A 
HETATM    3  C3  UNL     1      31.357  27.934  39.154  1.00  0.00     0.043 A 
HETATM    4  C4  UNL     1      30.480  28.847  38.729  1.00  0.00     0.068 A 
HETATM    5  N1  UNL     1      29.854  29.704  39.611  1.00  0.00    -0.307 N 
HETATM    6  C5  UNL     1      30.063  29.700  40.966  1.00  0.00     0.257 A 
HETATM    7  C6  UNL     1      31.276  28.611  42.915  1.00  0.00     0.224 C 
HETATM    8  O1  UNL     1      31.823  27.355  43.372  1.00  0.00    -0.314 OA
HETATM    9  C7  UNL     1      32.328  26.427  42.530  1.00  0.00     0.298 C 
HETATM   10  C8  UNL     1      32.675  26.859  41.086  1.00  0.00     0.173 C 
HETATM   11  O2  UNL     1      32.568  25.283  42.919  1.00  0.00    -0.261 OA
HETATM   12  O3  UNL     1      29.517  30.472  41.746  1.00  0.00    -0.267 OA
HETATM   13  C9  UNL     1      30.004  29.150  37.384  1.00  0.00     0.093 A 
HETATM   14  C10 UNL     1      29.090  30.193  37.477  1.00  0.00    -0.002 A 
HETATM   15  C11 UNL     1      28.941  30.611  38.913  1.00  0.00     0.174 A 
HETATM   16  N2  UNL     1      30.381  28.532  36.263  1.00  0.00    -0.245 NA
HETATM   17  C12 UNL     1      29.801  28.971  35.135  1.00  0.00     0.068 A 
HETATM   18  C13 UNL     1      28.842  30.033  35.095  1.00  0.00     0.002 A 
HETATM   19  C14 UNL     1      28.486  30.670  36.321  1.00  0.00    -0.035 A 
HETATM   20  C15 UNL     1      30.162  28.344  33.952  1.00  0.00     0.035 A 
HETATM   21  C16 UNL     1      29.618  28.717  32.724  1.00  0.00     0.039 A 
HETATM   22  C17 UNL     1      28.687  29.739  32.677  1.00  0.00     0.066 A 
HETATM   23  C18 UNL     1      28.297  30.396  33.840  1.00  0.00     0.051 A 
ENDROOT
BRANCH  10  24
HETATM   24  C21 UNL     1      34.120  27.404  41.109  1.00  0.00     0.049 C 
HETATM   25  C22 UNL     1      35.211  26.343  41.031  1.00  0.00     0.009 C 
ENDBRANCH  10  24
BRANCH  10  26
HETATM   26  O5  UNL     1      32.645  25.683  40.263  1.00  0.00    -0.375 OA
HETATM   27  H20 UNL     1      32.772  24.923  40.868  1.00  0.00     0.211 HD
ENDBRANCH  10  26
BRANCH  19  28
HETATM   28  C19 UNL     1      27.479  31.791  36.413  1.00  0.00     0.036 C 
HETATM   29  C20 UNL     1      26.106  31.293  36.837  1.00  0.00     0.010 C 
ENDBRANCH  19  28
BRANCH  22  30
HETATM   30  O4  UNL     1      28.173  30.074  31.460  1.00  0.00    -0.361 OA
HETATM   31  H14 UNL     1      27.921  31.011  31.467  1.00  0.00     0.217 HD
ENDBRANCH  22  30
TORSDOF 4
