REMARK  4 active torsions:
REMARK  status: ('A' for Active; 'I' for Inactive)
REMARK    1  A    between atoms: C3_3  and  O1_8 
REMARK    2  A    between atoms: C6_6  and  O2_10 
REMARK    3  A    between atoms: N1_13  and  C10_14 
REMARK    4  A    between atoms: C10_14  and  C11_15 
ROOT
HETATM    1  C1  UNL     1      30.385  29.266  38.054  1.00  0.00     0.064 A 
HETATM    2  C2  UNL     1      29.858  30.347  38.727  1.00  0.00     0.070 A 
HETATM    3  C3  UNL     1      29.902  30.451  40.112  1.00  0.00     0.090 A 
HETATM    4  C4  UNL     1      30.501  29.414  40.797  1.00  0.00     0.048 A 
HETATM    5  C5  UNL     1      31.027  28.335  40.119  1.00  0.00    -0.020 A 
HETATM    6  C6  UNL     1      30.984  28.232  38.741  1.00  0.00     0.076 A 
HETATM    7 CL1  UNL     1      29.089  31.679  37.868  1.00  0.00    -0.081 Cl
HETATM    8  C8  UNL     1      31.683  27.204  40.861  1.00  0.00     0.071 A 
HETATM    9  C9  UNL     1      33.193  27.339  40.707  1.00  0.00     0.274 A 
HETATM   10  N1  UNL     1      33.840  26.250  41.421  1.00  0.00     0.087 N 
HETATM   11 CL2  UNL     1      32.332  27.625  40.460  1.00  0.00    -0.145 Cl
HETATM   12  H10 UNL     1      33.537  25.322  41.034  1.00  0.00     0.316 HD
HETATM   13  H20 UNL     1      33.483  26.986  40.867  1.00  0.00     0.145 HD
ENDROOT
BRANCH   6  14
HETATM   14  O2  UNL     1      31.525  27.124  38.077  1.00  0.00    -0.355 OA
HETATM   15  C17 UNL     1      30.947  26.752  36.841  1.00  0.00     0.210 C 
ENDBRANCH   6  14
BRANCH   3  16
HETATM   16  O1  UNL     1      29.361  31.557  40.765  1.00  0.00    -0.354 OA
HETATM   17  C7  UNL     1      28.196  31.348  41.539  1.00  0.00     0.210 C 
ENDBRANCH   3  16
BRANCH  10  18
HETATM   18  C10 UNL     1      35.283  26.418  41.249  1.00  0.00     0.311 C 
BRANCH  18  19
HETATM   19  C11 UNL     1      35.861  26.852  42.525  1.00  0.00     0.008 A 
HETATM   20  C12 UNL     1      37.036  27.577  42.540  1.00  0.00     0.124 A 
HETATM   21  C13 UNL     1      37.594  27.995  43.730  1.00  0.00     0.043 A 
HETATM   22  F1  UNL     1      37.687  27.909  41.407  1.00  0.00    -0.205 F 
HETATM   23  C14 UNL     1      36.993  27.698  44.935  1.00  0.00     0.003 A 
HETATM   24  C15 UNL     1      35.825  26.976  44.924  1.00  0.00     0.001 A 
HETATM   25  C16 UNL     1      35.281  26.567  43.735  1.00  0.00     0.012 A 
ENDBRANCH  18  19
ENDBRANCH  10  18
TORSDOF 4
