REMARK  6 active torsions:
REMARK  status: ('A' for Active; 'I' for Inactive)
REMARK    1  A    between atoms: C7_7  and  C9_10 
REMARK    2  A    between atoms: N1_9  and  C16_19 
REMARK       I    between atoms: C9_10  and  N2_11 
REMARK    3  A    between atoms: N2_11  and  C10_13 
REMARK    4  A    between atoms: C16_19  and  C17_20 
REMARK    5  A    between atoms: C17_20  and  C18_21 
REMARK    6  A    between atoms: C18_21  and  C19_22 
ROOT
HETATM    1  C1  UNL     1      31.423  24.855  39.824  1.00  0.00     0.015 A 
HETATM    2  C2  UNL     1      31.329  26.267  39.808  1.00  0.00     0.008 A 
HETATM    3  C3  UNL     1      30.775  26.879  38.676  1.00  0.00     0.045 A 
HETATM    4  C4  UNL     1      30.275  26.136  37.594  1.00  0.00     0.030 A 
HETATM    5  C5  UNL     1      30.359  24.743  37.652  1.00  0.00     0.002 A 
HETATM    6  C6  UNL     1      30.931  24.108  38.747  1.00  0.00     0.001 A 
HETATM    7  C7  UNL     1      31.708  27.310  40.722  1.00  0.00     0.060 A 
HETATM    8  C8  UNL     1      31.429  28.507  40.088  1.00  0.00     0.109 A 
HETATM    9  N1  UNL     1      30.854  28.240  38.876  1.00  0.00    -0.355 N 
ENDROOT
BRANCH   7  10
HETATM   10  C9  UNL     1      32.300  27.226  42.059  1.00  0.00     0.258 C 
HETATM   11  N2  UNL     1      33.672  27.066  42.036  1.00  0.00    -0.323 N 
HETATM   12  H6  UNL     1      34.080  26.914  41.123  1.00  0.00     0.169 HD
HETATM   13  O1  UNL     1      31.593  27.243  43.061  1.00  0.00    -0.267 OA
BRANCH  11  14
HETATM   14  C10 UNL     1      34.555  26.992  43.130  1.00  0.00     0.035 A 
HETATM   15  C11 UNL     1      34.800  28.048  44.009  1.00  0.00     0.029 A 
HETATM   16  C12 UNL     1      35.701  27.893  45.069  1.00  0.00     0.002 A 
HETATM   17  C13 UNL     1      36.365  26.684  45.255  1.00  0.00     0.000 A 
HETATM   18  C14 UNL     1      36.132  25.626  44.381  1.00  0.00     0.002 A 
HETATM   19  C15 UNL     1      35.232  25.780  43.323  1.00  0.00     0.029 A 
ENDBRANCH  11  14
ENDBRANCH   7  10
BRANCH   9  20
HETATM   20  C16 UNL     1      30.425  29.265  37.936  1.00  0.00     0.128 C 
BRANCH  20  21
HETATM   21  C17 UNL     1      29.452  30.256  38.572  1.00  0.00     0.020 C 
BRANCH  21  22
HETATM   22  C18 UNL     1      28.097  29.603  38.844  1.00  0.00     0.001 C 
BRANCH  22  23
HETATM   23  C19 UNL     1      27.782  29.580  40.340  1.00  0.00    -0.004 C 
HETATM   24  C20 UNL     1      28.550  30.658  41.089  1.00  0.00     0.005 C 
ENDBRANCH  22  23
ENDBRANCH  21  22
ENDBRANCH  20  21
ENDBRANCH   9  20
TORSDOF 6
