REMARK  8 active torsions:
REMARK  status: ('A' for Active; 'I' for Inactive)
REMARK    1  A    between atoms: C1_1  and  C7_11 
REMARK    2  A    between atoms: C4_4  and  C5_6 
REMARK    3  A    between atoms: C5_6  and  S2_7 
REMARK    4  A    between atoms: S2_7  and  C6_8 
REMARK    5  A    between atoms: C6_8  and  N2_10 
REMARK    6  A    between atoms: C7_11  and  S3_12 
REMARK    7  A    between atoms: S3_12  and  C8_13 
REMARK    8  A    between atoms: C8_13  and  N3_14 
ROOT
HETATM    1  C1  UNL     1      29.453  29.120  39.669  1.00  0.00    -0.007 A 
HETATM    2  C2  UNL     1      29.603  27.793  39.338  1.00  0.00     0.016 A 
HETATM    3  C3  UNL     1      30.301  27.027  40.180  1.00  0.00     0.016 A 
HETATM    4  C4  UNL     1      30.811  27.616  41.303  1.00  0.00    -0.007 A 
HETATM    5  S1  UNL     1      30.292  29.237  41.139  1.00  0.00    -0.098 SA
HETATM    6 CL1  UNL     1      30.937  28.982  40.959  1.00  0.00    -0.145 Cl
HETATM    7 CL2  UNL     1      30.935  28.982  40.959  1.00  0.00    -0.145 Cl
HETATM    8  H13 UNL     1      29.579  29.154  40.842  1.00  0.00     0.145 HD
HETATM    9  H14 UNL     1      29.581  29.154  40.842  1.00  0.00     0.145 HD
ENDROOT
BRANCH   1  10
HETATM   10  C7  UNL     1      28.731  30.155  38.881  1.00  0.00     0.128 C 
BRANCH  10  11
HETATM   11  S3  UNL     1      29.901  31.055  37.849  1.00  0.00    -0.088 SA
BRANCH  11  12
HETATM   12  C8  UNL     1      30.292  32.619  38.561  1.00  0.00     0.152 C 
HETATM   13  N4  UNL     1      31.262  33.331  38.163  1.00  0.00    -0.278 NA
HETATM   14  H12 UNL     1      31.934  33.131  37.409  1.00  0.00     0.189 HD
BRANCH  12  15
HETATM   15  N3  UNL     1      29.455  33.124  39.593  1.00  0.00    -0.379 N 
HETATM   16  H10 UNL     1      28.439  33.281  39.332  1.00  0.00     0.158 HD
HETATM   17  H11 UNL     1      29.831  33.324  40.534  1.00  0.00     0.158 HD
ENDBRANCH  12  15
ENDBRANCH  11  12
ENDBRANCH  10  11
ENDBRANCH   1  10
BRANCH   4  18
HETATM   18  C5  UNL     1      31.627  26.980  42.398  1.00  0.00     0.128 C 
BRANCH  18  19
HETATM   19  S2  UNL     1      32.929  26.023  41.600  1.00  0.00    -0.088 SA
BRANCH  19  20
HETATM   20  C6  UNL     1      34.450  26.983  41.484  1.00  0.00     0.152 C 
HETATM   21  N1  UNL     1      35.293  26.631  40.592  1.00  0.00    -0.278 NA
HETATM   22  H5  UNL     1      36.177  27.168  40.506  1.00  0.00     0.189 HD
BRANCH  20  23
HETATM   23  N2  UNL     1      34.706  28.077  42.329  1.00  0.00    -0.379 N 
HETATM   24  H6  UNL     1      35.553  28.699  42.159  1.00  0.00     0.158 HD
HETATM   25  H7  UNL     1      34.119  28.347  43.142  1.00  0.00     0.158 HD
ENDBRANCH  20  23
ENDBRANCH  19  20
ENDBRANCH  18  19
ENDBRANCH   4  18
TORSDOF 8
