REMARK  13 active torsions:
REMARK  status: ('A' for Active; 'I' for Inactive)
REMARK    1  A    between atoms: C1_1  and  C6_8 
REMARK    2  A    between atoms: C2_2  and  C7_9 
REMARK    3  A    between atoms: C6_8  and  C15_17 
REMARK    4  A    between atoms: C8_10  and  C9_11 
REMARK    5  A    between atoms: C9_11  and  C10_12 
REMARK    6  A    between atoms: C10_12  and  C11_13 
REMARK    7  A    between atoms: C11_13  and  C12_14 
REMARK    8  A    between atoms: C12_14  and  C13_15 
REMARK    9  A    between atoms: C16_18  and  C17_19 
REMARK   10  A    between atoms: C17_19  and  C18_20 
REMARK   11  A    between atoms: C18_20  and  C19_21 
REMARK   12  A    between atoms: C19_21  and  C20_22 
REMARK   13  A    between atoms: C20_22  and  O2_24 
ROOT
HETATM    1  C1  UNL     1      31.296  27.650  41.921  1.00  0.00     0.025 C 
HETATM    2  C2  UNL     1      32.692  26.969  41.752  1.00  0.00     0.041 C 
HETATM    3  C3  UNL     1      32.259  25.548  41.300  1.00  0.00     0.140 C 
HETATM    4  N1  UNL     1      31.733  25.698  39.915  1.00  0.00    -0.192 NA
HETATM    5  N2  UNL     1      30.613  26.278  40.001  1.00  0.00    -0.192 NA
HETATM    6  C4  UNL     1      30.352  26.524  41.443  1.00  0.00     0.137 C 
HETATM    7  C5  UNL     1      30.971  25.283  42.059  1.00  0.00     0.059 C 
ENDROOT
BRANCH   1   8
HETATM    8  C6  UNL     1      31.119  28.957  41.141  1.00  0.00     0.034 C 
BRANCH   8   9
HETATM    9  C15 UNL     1      29.744  29.542  41.306  1.00  0.00    -0.030 C 
HETATM   10  C16 UNL     1      28.819  29.725  40.349  1.00  0.00    -0.031 C 
BRANCH  10  11
HETATM   11  C17 UNL     1      28.919  29.342  38.901  1.00  0.00     0.027 C 
BRANCH  11  12
HETATM   12  C18 UNL     1      29.015  30.543  37.953  1.00  0.00     0.014 C 
BRANCH  12  13
HETATM   13  C19 UNL     1      30.379  31.232  37.967  1.00  0.00     0.110 C 
BRANCH  13  14
HETATM   14  C20 UNL     1      30.351  32.577  38.642  1.00  0.00     0.139 C 
HETATM   15  O1  UNL     1      29.571  32.952  39.501  1.00  0.00    -0.650 OA
BRANCH  14  16
HETATM   16  O2  UNL     1      31.288  33.414  38.154  1.00  0.00    -0.776 OA
HETATM   17  H32 UNL     1      31.965  32.815  37.777  1.00  0.00     0.167 HD
ENDBRANCH  14  16
ENDBRANCH  13  14
ENDBRANCH  12  13
ENDBRANCH  11  12
ENDBRANCH  10  11
ENDBRANCH   8   9
ENDBRANCH   1   8
BRANCH   2  18
HETATM   18  C7  UNL     1      33.514  27.087  43.017  1.00  0.00    -0.023 C 
HETATM   19  C8  UNL     1      34.202  28.157  43.446  1.00  0.00    -0.030 C 
BRANCH  19  20
HETATM   20  C9  UNL     1      34.989  28.181  44.727  1.00  0.00     0.027 C 
BRANCH  20  21
HETATM   21  C10 UNL     1      36.251  27.312  44.679  1.00  0.00     0.004 C 
BRANCH  21  22
HETATM   22  C11 UNL     1      37.204  27.570  43.504  1.00  0.00     0.000 C 
BRANCH  22  23
HETATM   23  C12 UNL     1      37.354  26.368  42.567  1.00  0.00    -0.000 C 
BRANCH  23  24
HETATM   24  C13 UNL     1      36.663  25.105  43.090  1.00  0.00    -0.005 C 
HETATM   25  C14 UNL     1      37.308  23.815  42.608  1.00  0.00     0.005 C 
ENDBRANCH  23  24
ENDBRANCH  22  23
ENDBRANCH  21  22
ENDBRANCH  20  21
ENDBRANCH  19  20
ENDBRANCH   2  18
TORSDOF 13
