REMARK  4 active torsions:
REMARK  status: ('A' for Active; 'I' for Inactive)
REMARK    1  A    between atoms: C2_2  and  C3_3 
REMARK    2  A    between atoms: C6_7  and  O4_17 
REMARK    3  A    between atoms: C12_13  and  O2_14 
REMARK    4  A    between atoms: C22_28  and  C23_29 
ROOT
HETATM    1  C3  UNL     1      28.528  30.452  36.232  1.00  0.00     0.163 C 
HETATM    2  O1  UNL     1      29.955  30.251  36.103  1.00  0.00    -0.311 OA
HETATM    3  C4  UNL     1      30.572  29.049  36.150  1.00  0.00     0.261 C 
HETATM    4  C5  UNL     1      29.846  27.903  36.817  1.00  0.00     0.144 C 
HETATM    5  C6  UNL     1      30.797  26.708  37.015  1.00  0.00     0.142 C 
HETATM    6  C7  UNL     1      30.293  25.642  38.032  1.00  0.00     0.040 C 
HETATM    7  C8  UNL     1      28.835  25.232  37.729  1.00  0.00     0.026 C 
HETATM    8  C9  UNL     1      30.387  26.184  39.483  1.00  0.00     0.143 C 
HETATM    9  C10 UNL     1      31.770  26.525  40.063  1.00  0.00     0.081 C 
HETATM   10  C11 UNL     1      32.128  25.528  41.159  1.00  0.00     0.020 C 
HETATM   11  C12 UNL     1      31.861  28.012  40.482  1.00  0.00     0.132 C 
HETATM   12  O3  UNL     1      29.372  26.308  40.177  1.00  0.00    -0.297 OA
HETATM   13  C13 UNL     1      31.141  24.354  37.940  1.00  0.00     0.026 C 
HETATM   14  O5  UNL     1      31.682  28.907  35.638  1.00  0.00    -0.265 OA
HETATM   15  C14 UNL     1      28.139  30.788  37.686  1.00  0.00     0.071 C 
HETATM   16  C15 UNL     1      28.999  31.840  38.324  1.00  0.00     0.153 A 
HETATM   17  C16 UNL     1      29.163  31.964  39.830  1.00  0.00     0.151 A 
HETATM   18  C17 UNL     1      28.434  31.083  40.802  1.00  0.00     0.034 C 
HETATM   19  C18 UNL     1      29.054  29.704  41.035  1.00  0.00     0.003 C 
HETATM   20  C19 UNL     1      30.393  29.767  41.777  1.00  0.00     0.007 C 
HETATM   21  C20 UNL     1      31.117  28.403  41.800  1.00  0.00     0.011 C 
HETATM   22  C21 UNL     1      32.113  28.411  42.972  1.00  0.00     0.012 C 
HETATM   23  O6  UNL     1      30.153  31.338  39.003  1.00  0.00    -0.375 OA
ENDROOT
BRANCH   1  24
HETATM   24  C2  UNL     1      28.084  31.541  35.248  1.00  0.00    -0.052 C 
HETATM   25  C1  UNL     1      27.910  31.054  33.831  1.00  0.00     0.046 C 
HETATM   26  C22 UNL     1      27.873  32.816  35.644  1.00  0.00     0.037 C 
BRANCH  26  27
HETATM   27  C23 UNL     1      27.495  33.947  34.863  1.00  0.00     0.064 A 
HETATM   28  C24 UNL     1      26.453  34.812  35.117  1.00  0.00     0.083 A 
HETATM   29  S1  UNL     1      26.369  35.988  33.871  1.00  0.00    -0.085 SA
HETATM   30  C25 UNL     1      27.691  35.224  33.080  1.00  0.00     0.071 A 
HETATM   31  C26 UNL     1      28.198  35.763  31.790  1.00  0.00     0.078 C 
HETATM   32  N1  UNL     1      28.186  34.169  33.692  1.00  0.00    -0.246 NA
ENDBRANCH  26  27
ENDBRANCH   1  24
BRANCH   5  33
HETATM   33  O4  UNL     1      30.981  26.081  35.734  1.00  0.00    -0.394 OA
HETATM   34  H20 UNL     1      31.494  25.264  35.905  1.00  0.00     0.210 HD
ENDBRANCH   5  33
BRANCH  11  35
HETATM   35  O2  UNL     1      31.467  28.769  39.337  1.00  0.00    -0.394 OA
HETATM   36  H16 UNL     1      32.147  28.683  38.641  1.00  0.00     0.210 HD
ENDBRANCH  11  35
TORSDOF 4
