REMARK  4 active torsions:
REMARK  status: ('A' for Active; 'I' for Inactive)
REMARK    1  A    between atoms: C12_12  and  C18_18 
REMARK    2  A    between atoms: C17_17  and  O1_23 
REMARK    3  A    between atoms: N1_20  and  O3_26 
REMARK    4  A    between atoms: O1_23  and  C22_24 
ROOT
HETATM    1  C1  UNL     1      27.152  30.103  40.102  1.00  0.00     0.062 C 
HETATM    2  C2  UNL     1      27.391  30.356  38.622  1.00  0.00     0.061 C 
HETATM    3  C3  UNL     1      28.707  29.977  38.045  1.00  0.00     0.032 C 
HETATM    4  C4  UNL     1      29.629  29.328  38.776  1.00  0.00    -0.073 C 
HETATM    5  C5  UNL     1      29.384  28.935  40.223  1.00  0.00     0.019 C 
HETATM    6  C6  UNL     1      28.454  29.958  40.885  1.00  0.00     0.015 C 
HETATM    7  C7  UNL     1      30.988  29.022  38.200  1.00  0.00     0.035 C 
HETATM    8  C8  UNL     1      31.599  27.728  38.737  1.00  0.00     0.010 C 
HETATM    9  C9  UNL     1      31.489  27.556  40.269  1.00  0.00    -0.005 C 
HETATM   10  C10 UNL     1      30.738  28.739  40.949  1.00  0.00    -0.002 C 
HETATM   11  C11 UNL     1      32.839  27.369  40.965  1.00  0.00     0.002 C 
HETATM   12  C12 UNL     1      32.771  27.087  42.494  1.00  0.00     0.007 C 
HETATM   13  C13 UNL     1      31.958  28.227  43.153  1.00  0.00     0.014 C 
HETATM   14  C14 UNL     1      30.615  28.529  42.468  1.00  0.00     0.006 C 
HETATM   15  C15 UNL     1      33.825  26.324  40.464  1.00  0.00     0.010 C 
HETATM   16  C16 UNL     1      34.879  26.242  41.586  1.00  0.00     0.053 C 
HETATM   17  C17 UNL     1      34.329  27.063  42.807  1.00  0.00     0.140 C 
HETATM   18  N1  UNL     1      26.500  30.862  37.819  1.00  0.00    -0.141 NA
HETATM   19  C20 UNL     1      34.999  28.389  42.801  1.00  0.00    -0.077 C 
HETATM   20  C21 UNL     1      35.552  29.456  42.800  1.00  0.00     0.015 C 
ENDROOT
BRANCH  17  21
HETATM   21  O1  UNL     1      34.713  26.317  43.985  1.00  0.00    -0.296 OA
BRANCH  21  22
HETATM   22  C22 UNL     1      36.016  26.009  44.200  1.00  0.00     0.256 C 
HETATM   23  O2  UNL     1      36.912  26.785  44.492  1.00  0.00    -0.266 OA
HETATM   24  C23 UNL     1      36.213  24.532  44.040  1.00  0.00     0.126 C 
ENDBRANCH  21  22
ENDBRANCH  17  21
BRANCH  12  25
HETATM   25  C18 UNL     1      32.198  25.686  42.958  1.00  0.00     0.009 C 
HETATM   26  C19 UNL     1      30.793  25.238  42.596  1.00  0.00     0.006 C 
ENDBRANCH  12  25
BRANCH  18  27
HETATM   27  O3  UNL     1      25.299  31.134  38.482  1.00  0.00    -0.266 OA
HETATM   28  H28 UNL     1      24.823  30.286  38.409  1.00  0.00     0.247 HD
ENDBRANCH  18  27
TORSDOF 4
