REMARK  6 active torsions:
REMARK  status: ('A' for Active; 'I' for Inactive)
REMARK    1  A    between atoms: C5_7  and  N2_8 
REMARK       I    between atoms: N2_8  and  C6_9 
REMARK    2  A    between atoms: C6_9  and  C7_10 
REMARK    3  A    between atoms: C7_10  and  N3_11 
REMARK       I    between atoms: N3_11  and  C8_12 
REMARK    4  A    between atoms: C8_12  and  C9_13 
REMARK    5  A    between atoms: C9_13  and  C10_14 
REMARK    6  A    between atoms: C9_13  and  O2_17 
ROOT
HETATM    1  N2  UNL     1      31.715  27.213  39.187  1.00  0.00    -0.342 N 
HETATM    2  C6  UNL     1      32.274  27.347  40.439  1.00  0.00     0.241 C 
HETATM    3  O4  UNL     1      32.342  28.420  41.040  1.00  0.00    -0.271 OA
HETATM    4  H9  UNL     1      31.384  26.286  38.941  1.00  0.00     0.163 HD
ENDROOT
BRANCH   1   5
HETATM    5  C5  UNL     1      30.907  28.292  38.612  1.00  0.00     0.211 C 
HETATM    6  C1  UNL     1      29.567  28.292  39.395  1.00  0.00     0.246 C 
HETATM    7  O1  UNL     1      29.284  27.338  40.132  1.00  0.00    -0.271 OA
HETATM    8  N1  UNL     1      28.738  29.416  39.308  1.00  0.00    -0.354 N 
HETATM    9  C2  UNL     1      27.617  29.430  40.239  1.00  0.00     0.152 C 
HETATM   10  C3  UNL     1      28.483  30.134  38.051  1.00  0.00     0.130 C 
HETATM   11  C4  UNL     1      29.667  30.444  37.137  1.00  0.00     0.059 C 
HETATM   12  C15 UNL     1      30.129  29.208  36.402  1.00  0.00    -0.048 A 
HETATM   13  C14 UNL     1      30.709  28.141  37.115  1.00  0.00    -0.020 A 
HETATM   14  C16 UNL     1      29.957  29.115  35.013  1.00  0.00     0.008 A 
HETATM   15  C19 UNL     1      31.098  26.991  36.405  1.00  0.00     0.010 A 
HETATM   16  C18 UNL     1      30.918  26.907  35.023  1.00  0.00     0.001 A 
HETATM   17  C17 UNL     1      30.350  27.968  34.327  1.00  0.00     0.001 A 
ENDBRANCH   1   5
BRANCH   2  18
HETATM   18  C7  UNL     1      32.817  26.040  41.048  1.00  0.00     0.172 C 
HETATM   19  C13 UNL     1      31.708  25.280  41.766  1.00  0.00     0.042 C 
BRANCH  18  20
HETATM   20  N3  UNL     1      33.891  26.398  41.965  1.00  0.00    -0.346 N 
HETATM   21  C8  UNL     1      35.163  26.679  41.540  1.00  0.00     0.247 C 
HETATM   22  O3  UNL     1      35.517  26.590  40.365  1.00  0.00    -0.271 OA
HETATM   23  H11 UNL     1      33.633  26.495  42.943  1.00  0.00     0.163 HD
BRANCH  21  24
HETATM   24  C9  UNL     1      36.162  27.082  42.643  1.00  0.00     0.213 C 
BRANCH  24  25
HETATM   25  C10 UNL     1      35.770  26.541  44.032  1.00  0.00     0.015 C 
HETATM   26  C11 UNL     1      36.380  27.366  45.168  1.00  0.00     0.012 C 
HETATM   27  C12 UNL     1      36.196  25.077  44.182  1.00  0.00     0.012 C 
ENDBRANCH  24  25
BRANCH  24  28
HETATM   28  O2  UNL     1      36.299  28.503  42.696  1.00  0.00    -0.386 OA
HETATM   29  H20 UNL     1      36.500  28.788  41.781  1.00  0.00     0.210 HD
ENDBRANCH  24  28
ENDBRANCH  21  24
ENDBRANCH  18  20
ENDBRANCH   2  18
TORSDOF 6
