REMARK  0 active torsions:
REMARK  status: ('A' for Active; 'I' for Inactive)
ROOT
HETATM    1  C1  UNL     1      31.984  26.606  41.546  1.00  0.00    -0.008 A 
HETATM    2  C2  UNL     1      31.270  25.479  40.898  1.00  0.00     0.145 C 
HETATM    3  C3  UNL     1      30.884  25.722  39.457  1.00  0.00     0.226 C 
HETATM    4  N1  UNL     1      30.130  26.797  39.083  1.00  0.00    -0.325 N 
HETATM    5  C4  UNL     1      29.792  27.992  39.749  1.00  0.00     0.066 A 
HETATM    6  C5  UNL     1      30.407  28.525  40.887  1.00  0.00     0.110 A 
HETATM    7  C6  UNL     1      31.547  27.914  41.548  1.00  0.00     0.071 A 
HETATM    8  N2  UNL     1      32.413  28.636  42.330  1.00  0.00    -0.353 N 
HETATM    9  C7  UNL     1      33.429  27.840  42.799  1.00  0.00     0.043 A 
HETATM   10  C8  UNL     1      33.186  26.551  42.323  1.00  0.00     0.001 A 
HETATM   11  O1  UNL     1      31.129  24.872  38.593  1.00  0.00    -0.273 OA
HETATM   12  C9  UNL     1      28.783  28.763  39.158  1.00  0.00     0.033 A 
HETATM   13  C10 UNL     1      28.408  29.983  39.718  1.00  0.00     0.022 A 
HETATM   14  C11 UNL     1      29.070  30.414  40.850  1.00  0.00     0.117 A 
HETATM   15  N3  UNL     1      30.067  29.722  41.439  1.00  0.00    -0.257 NA
HETATM   16  C12 UNL     1      34.527  28.160  43.607  1.00  0.00     0.031 A 
HETATM   17  C13 UNL     1      35.406  27.126  43.942  1.00  0.00     0.021 A 
HETATM   18  C14 UNL     1      35.184  25.830  43.485  1.00  0.00     0.011 A 
HETATM   19  C15 UNL     1      34.083  25.523  42.679  1.00  0.00     0.033 A 
HETATM   20 BR1  UNL     1      36.394  24.455  43.962  1.00  0.00    -0.051 Br
HETATM   21  H3  UNL     1      29.795  26.692  38.132  1.00  0.00     0.169 HD
HETATM   22  H4  UNL     1      32.299  29.623  42.519  1.00  0.00     0.166 HD
ENDROOT
TORSDOF 0
