REMARK  16 active torsions:
REMARK  status: ('A' for Active; 'I' for Inactive)
REMARK    1  A    between atoms: C1_1  and  O2_7 
REMARK    2  A    between atoms: C2_2  and  C12_14 
REMARK    3  A    between atoms: C3_3  and  C6_8 
REMARK    4  A    between atoms: C4_4  and  O1_6 
REMARK    5  A    between atoms: C6_8  and  C7_9 
REMARK    6  A    between atoms: C8_10  and  C9_11 
REMARK    7  A    between atoms: C9_11  and  C10_12 
REMARK    8  A    between atoms: C10_12  and  C11_13 
REMARK    9  A    between atoms: C11_13  and  C21_24 
REMARK   10  A    between atoms: C13_15  and  C14_16 
REMARK   11  A    between atoms: C14_16  and  C15_17 
REMARK   12  A    between atoms: C14_16  and  O3_23 
REMARK   13  A    between atoms: C15_17  and  C16_18 
REMARK   14  A    between atoms: C16_18  and  C17_19 
REMARK   15  A    between atoms: C17_19  and  C18_20 
REMARK   16  A    between atoms: C21_24  and  O5_26 
ROOT
HETATM    1  C1  UNL     1      29.428  28.962  38.967  1.00  0.00     0.128 C 
HETATM    2  C2  UNL     1      30.845  28.379  38.821  1.00  0.00     0.043 C 
HETATM    3  C3  UNL     1      30.951  27.471  40.058  1.00  0.00     0.028 C 
HETATM    4  C4  UNL     1      30.340  28.356  41.155  1.00  0.00     0.125 C 
HETATM    5  C5  UNL     1      29.184  29.096  40.474  1.00  0.00     0.064 C 
ENDROOT
BRANCH   2   6
HETATM    6  C12 UNL     1      31.021  27.635  37.517  1.00  0.00    -0.020 C 
HETATM    7  C13 UNL     1      30.790  28.183  36.311  1.00  0.00     0.007 C 
BRANCH   7   8
HETATM    8  C14 UNL     1      30.954  27.533  34.948  1.00  0.00     0.072 C 
HETATM    9  C20 UNL     1      30.465  26.084  34.884  1.00  0.00     0.050 C 
BRANCH   8  10
HETATM   10  C15 UNL     1      30.279  28.438  33.888  1.00  0.00     0.041 C 
BRANCH  10  11
HETATM   11  C16 UNL     1      29.187  27.772  33.034  1.00  0.00     0.003 C 
BRANCH  11  12
HETATM   12  C17 UNL     1      27.944  28.651  32.863  1.00  0.00    -0.000 C 
BRANCH  12  13
HETATM   13  C18 UNL     1      26.663  27.846  32.626  1.00  0.00    -0.005 C 
HETATM   14  C19 UNL     1      26.888  26.341  32.592  1.00  0.00     0.005 C 
ENDBRANCH  12  13
ENDBRANCH  11  12
ENDBRANCH  10  11
ENDBRANCH   8  10
BRANCH   8  15
HETATM   15  O3  UNL     1      32.361  27.487  34.691  1.00  0.00    -0.386 OA
HETATM   16  H35 UNL     1      32.633  28.352  34.341  1.00  0.00     0.211 HD
ENDBRANCH   8  15
ENDBRANCH   7   8
ENDBRANCH   2   6
BRANCH   1  17
HETATM   17  O2  UNL     1      29.309  30.227  38.331  1.00  0.00    -0.395 OA
HETATM   18  H8  UNL     1      29.575  30.105  37.403  1.00  0.00     0.210 HD
ENDBRANCH   1  17
BRANCH   3  19
HETATM   19  C6  UNL     1      32.382  26.987  40.323  1.00  0.00     0.034 C 
BRANCH  19  20
HETATM   20  C7  UNL     1      32.430  25.953  41.415  1.00  0.00    -0.030 C 
HETATM   21  C8  UNL     1      33.015  26.070  42.619  1.00  0.00    -0.031 C 
BRANCH  21  22
HETATM   22  C9  UNL     1      33.757  27.260  43.160  1.00  0.00     0.027 C 
BRANCH  22  23
HETATM   23  C10 UNL     1      35.071  26.833  43.819  1.00  0.00     0.013 C 
BRANCH  23  24
HETATM   24  C11 UNL     1      36.021  26.153  42.833  1.00  0.00     0.111 C 
BRANCH  24  25
HETATM   25  C21 UNL     1      36.325  27.004  41.621  1.00  0.00     0.258 C 
HETATM   26  O4  UNL     1      35.950  26.773  40.481  1.00  0.00    -0.265 OA
BRANCH  25  27
HETATM   27  O5  UNL     1      37.055  28.089  42.002  1.00  0.00    -0.326 OA
HETATM   28  C22 UNL     1      38.291  27.762  42.638  1.00  0.00     0.213 C 
ENDBRANCH  25  27
ENDBRANCH  24  25
ENDBRANCH  23  24
ENDBRANCH  22  23
ENDBRANCH  21  22
ENDBRANCH  19  20
ENDBRANCH   3  19
BRANCH   4  29
HETATM   29  O1  UNL     1      31.294  29.305  41.624  1.00  0.00    -0.395 OA
HETATM   30  H7  UNL     1      31.967  29.415  40.930  1.00  0.00     0.210 HD
ENDBRANCH   4  29
TORSDOF 16
