REMARK  0 active torsions:
REMARK  status: ('A' for Active; 'I' for Inactive)
ROOT
HETATM    1  C1  UNL     1      31.933  26.731  42.004  1.00  0.00     0.092 A 
HETATM    2  C2  UNL     1      31.262  26.223  40.898  1.00  0.00     0.064 A 
HETATM    3  C3  UNL     1      30.335  26.966  40.197  1.00  0.00     0.044 A 
HETATM    4  C4  UNL     1      30.052  28.244  40.584  1.00  0.00     0.009 A 
HETATM    5  C5  UNL     1      30.694  28.792  41.677  1.00  0.00     0.044 A 
HETATM    6  C6  UNL     1      31.628  28.026  42.374  1.00  0.00     0.064 A 
HETATM    7 CL1  UNL     1      32.461  28.709  43.778  1.00  0.00    -0.082 Cl
HETATM    8  I1  UNL     1      28.624  29.314  39.460  1.00  0.00    -0.044 I 
HETATM    9 CL2  UNL     1      31.669  24.567  40.446  1.00  0.00    -0.082 Cl
HETATM   10  N1  UNL     1      32.884  25.985  42.734  1.00  0.00    -0.187 N 
HETATM   11  C7  UNL     1      36.519  25.410  42.350  1.00  0.00     0.160 C 
HETATM   12  C8  UNL     1      36.185  26.433  41.308  1.00  0.00     0.189 C 
HETATM   13  N2  UNL     1      34.761  26.584  41.406  1.00  0.00    -0.106 NA
HETATM   14  C9  UNL     1      34.282  25.977  42.426  1.00  0.00     0.696 A 
HETATM   15  N3  UNL     1      35.319  25.340  43.145  1.00  0.00    -0.223 N 
HETATM   16 CL3  UNL     1      33.822  26.343  41.890  1.00  0.00    -0.145 Cl
HETATM   17  H3  UNL     1      32.618  25.377  43.564  1.00  0.00     0.184 HD
HETATM   18  H8  UNL     1      35.243  24.893  44.088  1.00  0.00     0.177 HD
HETATM   19  H9  UNL     1      32.553  26.851  41.674  1.00  0.00     0.145 HD
ENDROOT
TORSDOF 0
