REMARK  14 active torsions:
REMARK  status: ('A' for Active; 'I' for Inactive)
REMARK    1  A    between atoms: C2_2  and  O2_9 
REMARK    2  A    between atoms: C4_4  and  O3_11 
REMARK    3  A    between atoms: C5_5  and  N1_13 
REMARK    4  A    between atoms: C6_6  and  O1_7 
REMARK       I    between atoms: N1_13  and  C10_14 
REMARK    5  A    between atoms: C10_14  and  C11_15 
REMARK    6  A    between atoms: C11_15  and  C12_17 
REMARK    7  A    between atoms: C12_17  and  C15_20 
REMARK    8  A    between atoms: C15_20  and  C16_21 
REMARK    9  A    between atoms: C16_21  and  C17_22 
REMARK   10  A    between atoms: C17_22  and  C18_23 
REMARK   11  A    between atoms: C18_23  and  C19_24 
REMARK   12  A    between atoms: C19_24  and  C20_25 
REMARK   13  A    between atoms: C20_25  and  C21_26 
REMARK   14  A    between atoms: C21_26  and  C22_27 
ROOT
HETATM    1  N1  UNL     1      31.324  28.810  40.349  1.00  0.00    -0.322 N 
HETATM    2  C10 UNL     1      31.040  27.615  40.990  1.00  0.00     0.230 C 
HETATM    3  O4  UNL     1      30.177  26.816  40.636  1.00  0.00    -0.272 OA
HETATM    4  H12 UNL     1      32.289  29.117  40.362  1.00  0.00     0.169 HD
ENDROOT
BRANCH   2   5
HETATM    5  C11 UNL     1      31.980  27.315  42.193  1.00  0.00     0.034 C 
HETATM    6  C13 UNL     1      31.697  28.357  43.293  1.00  0.00     0.025 C 
HETATM    7  C14 UNL     1      31.632  25.920  42.738  1.00  0.00     0.025 C 
BRANCH   5   8
HETATM    8  C12 UNL     1      33.448  27.410  41.687  1.00  0.00     0.018 C 
BRANCH   8   9
HETATM    9  C15 UNL     1      34.188  26.125  41.288  1.00  0.00     0.001 C 
BRANCH   9  10
HETATM   10  C16 UNL     1      35.702  26.268  41.158  1.00  0.00     0.000 C 
BRANCH  10  11
HETATM   11  C17 UNL     1      36.427  25.390  42.186  1.00  0.00     0.000 C 
BRANCH  11  12
HETATM   12  C18 UNL     1      35.667  25.348  43.514  1.00  0.00     0.000 C 
BRANCH  12  13
HETATM   13  C19 UNL     1      36.242  26.291  44.576  1.00  0.00     0.000 C 
BRANCH  13  14
HETATM   14  C20 UNL     1      35.656  27.704  44.529  1.00  0.00     0.000 C 
BRANCH  14  15
HETATM   15  C21 UNL     1      36.549  28.645  43.717  1.00  0.00    -0.000 C 
BRANCH  15  16
HETATM   16  C22 UNL     1      38.028  28.302  43.896  1.00  0.00    -0.005 C 
HETATM   17  C23 UNL     1      38.746  28.223  42.558  1.00  0.00     0.005 C 
ENDBRANCH  15  16
ENDBRANCH  14  15
ENDBRANCH  13  14
ENDBRANCH  12  13
ENDBRANCH  11  12
ENDBRANCH  10  11
ENDBRANCH   9  10
ENDBRANCH   8   9
ENDBRANCH   5   8
ENDBRANCH   2   5
BRANCH   1  18
HETATM   18  C5  UNL     1      30.561  29.403  39.312  1.00  0.00     0.102 A 
HETATM   19  C4  UNL     1      30.622  29.012  37.968  1.00  0.00     0.100 A 
HETATM   20  C3  UNL     1      29.816  29.654  37.021  1.00  0.00     0.076 A 
HETATM   21  C2  UNL     1      28.953  30.686  37.394  1.00  0.00     0.073 A 
HETATM   22  C1  UNL     1      28.867  31.062  38.736  1.00  0.00     0.076 A 
HETATM   23  C6  UNL     1      29.650  30.412  39.700  1.00  0.00     0.100 A 
BRANCH  19  24
HETATM   24  O3  UNL     1      31.327  27.890  37.614  1.00  0.00    -0.353 OA
HETATM   25  C9  UNL     1      30.948  27.380  36.335  1.00  0.00     0.210 C 
ENDBRANCH  19  24
BRANCH  21  26
HETATM   26  O2  UNL     1      28.236  31.226  36.362  1.00  0.00    -0.356 OA
HETATM   27  C8  UNL     1      28.322  30.579  35.099  1.00  0.00     0.210 C 
ENDBRANCH  21  26
BRANCH  23  28
HETATM   28  O1  UNL     1      29.626  30.692  41.050  1.00  0.00    -0.353 OA
HETATM   29  C7  UNL     1      28.431  31.252  41.580  1.00  0.00     0.210 C 
ENDBRANCH  23  28
ENDBRANCH   1  18
TORSDOF 14
