REMARK  3 active torsions:
REMARK  status: ('A' for Active; 'I' for Inactive)
REMARK    1  A    between atoms: C8_8  and  O4_25 
REMARK    2  A    between atoms: C17_18  and  C18_20 
REMARK    3  A    between atoms: O4_25  and  C22_26 
ROOT
HETATM    1  C1  UNL     1      29.814  32.331  38.948  1.00  0.00     0.048 C 
HETATM    2  C2  UNL     1      29.093  32.017  37.690  1.00  0.00     0.157 C 
HETATM    3  C3  UNL     1      28.167  30.792  37.655  1.00  0.00     0.022 C 
HETATM    4  C4  UNL     1      28.803  29.707  38.584  1.00  0.00     0.016 C 
HETATM    5  C5  UNL     1      29.096  30.159  40.063  1.00  0.00    -0.017 C 
HETATM    6  C6  UNL     1      29.806  31.510  40.004  1.00  0.00    -0.013 C 
HETATM    7  C7  UNL     1      28.127  28.322  38.563  1.00  0.00     0.040 C 
HETATM    8  C8  UNL     1      29.060  27.237  39.136  1.00  0.00     0.143 C 
HETATM    9  C9  UNL     1      29.537  27.550  40.592  1.00  0.00     0.023 C 
HETATM   10  C10 UNL     1      30.054  29.044  40.671  1.00  0.00     0.012 C 
HETATM   11  C11 UNL     1      30.708  26.567  41.003  1.00  0.00     0.117 A 
HETATM   12  C12 UNL     1      31.982  27.149  41.642  1.00  0.00     0.022 C 
HETATM   13  C13 UNL     1      31.533  28.238  42.642  1.00  0.00     0.016 C 
HETATM   14  C14 UNL     1      30.652  29.356  42.060  1.00  0.00     0.007 C 
HETATM   15  C15 UNL     1      30.848  25.146  40.471  1.00  0.00     0.258 A 
HETATM   16  C16 UNL     1      32.145  24.431  40.577  1.00  0.00     0.291 C 
HETATM   17  O1  UNL     1      33.061  24.911  41.468  1.00  0.00    -0.308 OA
HETATM   18  C17 UNL     1      32.717  25.974  42.396  1.00  0.00     0.178 C 
HETATM   19  O2  UNL     1      32.381  23.477  39.845  1.00  0.00    -0.262 OA
HETATM   20  C24 UNL     1      28.137  30.286  36.189  1.00  0.00     0.024 C 
HETATM   21  C25 UNL     1      26.743  31.214  38.024  1.00  0.00     0.024 C 
HETATM   22  O6  UNL     1      29.281  32.745  36.721  1.00  0.00    -0.292 OA
HETATM   23  C26 UNL     1      27.835  30.413  40.919  1.00  0.00     0.020 C 
HETATM   24  C27 UNL     1      28.343  27.310  41.560  1.00  0.00     0.022 C 
HETATM   25  O7  UNL     1      30.196  25.407  41.709  1.00  0.00    -0.357 OA
HETATM   26  C28 UNL     1      32.935  27.711  40.551  1.00  0.00     0.021 C 
ENDROOT
BRANCH  18  27
HETATM   27  C18 UNL     1      33.958  26.387  43.151  1.00  0.00    -0.004 A 
HETATM   28  C19 UNL     1      35.098  25.628  43.341  1.00  0.00     0.151 A 
HETATM   29  O3  UNL     1      36.034  26.323  44.036  1.00  0.00    -0.334 OA
HETATM   30  C20 UNL     1      35.517  27.556  44.268  1.00  0.00     0.142 A 
HETATM   31  C21 UNL     1      34.247  27.646  43.759  1.00  0.00     0.036 A 
ENDBRANCH  18  27
BRANCH   8  32
HETATM   32  O4  UNL     1      30.245  27.139  38.296  1.00  0.00    -0.315 OA
BRANCH  32  33
HETATM   33  C22 UNL     1      30.197  26.258  37.259  1.00  0.00     0.255 C 
HETATM   34  O5  UNL     1      29.683  25.147  37.301  1.00  0.00    -0.266 OA
HETATM   35  C23 UNL     1      30.886  26.838  36.060  1.00  0.00     0.126 C 
ENDBRANCH  32  33
ENDBRANCH   8  32
TORSDOF 3
