REMARK  6 active torsions:
REMARK  status: ('A' for Active; 'I' for Inactive)
REMARK    1  A    between atoms: C2_2  and  O4_13 
REMARK    2  A    between atoms: C3_3  and  C10_14 
REMARK    3  A    between atoms: C6_6  and  O3_12 
REMARK    4  A    between atoms: C7_8  and  C15_19 
REMARK    5  A    between atoms: C10_14  and  C11_15 
REMARK    6  A    between atoms: C18_22  and  O5_25 
ROOT
HETATM    1  C1  UNL     1      32.001  24.686  40.912  1.00  0.00     0.074 A 
HETATM    2  C2  UNL     1      31.508  24.602  39.610  1.00  0.00     0.077 A 
HETATM    3  C3  UNL     1      30.860  25.688  38.998  1.00  0.00     0.013 A 
HETATM    4  C4  UNL     1      30.718  26.879  39.738  1.00  0.00     0.095 A 
HETATM    5  C5  UNL     1      31.196  26.961  41.053  1.00  0.00     0.077 A 
HETATM    6  C6  UNL     1      31.842  25.866  41.632  1.00  0.00     0.085 A 
HETATM    7  O1  UNL     1      30.071  27.929  39.131  1.00  0.00    -0.339 OA
HETATM    8  C7  UNL     1      30.473  29.207  39.644  1.00  0.00     0.169 C 
HETATM    9  C8  UNL     1      30.184  29.291  41.137  1.00  0.00     0.121 C 
HETATM   10  C9  UNL     1      30.977  28.210  41.813  1.00  0.00     0.167 C 
HETATM   11  O2  UNL     1      31.392  28.307  42.966  1.00  0.00    -0.292 OA
ENDROOT
BRANCH   8  12
HETATM   12  C15 UNL     1      29.750  30.265  38.832  1.00  0.00    -0.028 A 
HETATM   13  C16 UNL     1      29.364  31.495  39.394  1.00  0.00     0.012 A 
HETATM   14  C17 UNL     1      28.684  32.448  38.628  1.00  0.00     0.037 A 
HETATM   15  C18 UNL     1      28.374  32.168  37.301  1.00  0.00     0.065 A 
HETATM   16  C19 UNL     1      28.715  30.947  36.732  1.00  0.00     0.037 A 
HETATM   17  C20 UNL     1      29.399  29.997  37.495  1.00  0.00     0.012 A 
BRANCH  15  18
HETATM   18  O5  UNL     1      27.708  33.066  36.520  1.00  0.00    -0.361 OA
HETATM   19  H20 UNL     1      28.083  33.949  36.675  1.00  0.00     0.217 HD
ENDBRANCH  15  18
ENDBRANCH   8  12
BRANCH   3  20
HETATM   20  C10 UNL     1      30.316  25.576  37.589  1.00  0.00     0.072 C 
BRANCH  20  21
HETATM   21  C11 UNL     1      30.917  26.595  36.653  1.00  0.00    -0.020 C 
HETATM   22  C12 UNL     1      30.721  26.726  35.325  1.00  0.00    -0.091 C 
HETATM   23  C13 UNL     1      29.808  25.872  34.487  1.00  0.00     0.042 C 
HETATM   24  C14 UNL     1      31.434  27.806  34.551  1.00  0.00     0.042 C 
ENDBRANCH  20  21
ENDBRANCH   3  20
BRANCH   2  25
HETATM   25  O4  UNL     1      31.665  23.440  38.903  1.00  0.00    -0.360 OA
HETATM   26  H6  UNL     1      32.543  23.070  39.091  1.00  0.00     0.217 HD
ENDBRANCH   2  25
BRANCH   6  27
HETATM   27  O3  UNL     1      32.338  25.878  42.910  1.00  0.00    -0.360 OA
HETATM   28  H5  UNL     1      33.066  26.538  42.951  1.00  0.00     0.217 HD
ENDBRANCH   6  27
TORSDOF 6
