REMARK  5 active torsions:
REMARK  status: ('A' for Active; 'I' for Inactive)
REMARK    1  A    between atoms: C5_5  and  C12_13 
REMARK    2  A    between atoms: C9_9  and  O1_11 
REMARK    3  A    between atoms: C13_15  and  C15_18 
REMARK    4  A    between atoms: C14_17  and  C22_27 
REMARK    5  A    between atoms: C18_21  and  S1_24 
ROOT
HETATM    1  C12 UNL     1      31.161  28.175  38.956  1.00  0.00     0.074 A 
HETATM    2  N1  UNL     1      32.307  27.488  39.291  1.00  0.00    -0.338 N 
HETATM    3  C13 UNL     1      32.421  27.426  40.660  1.00  0.00     0.139 A 
HETATM    4  N2  UNL     1      31.394  28.043  41.212  1.00  0.00    -0.227 NA
HETATM    5  C14 UNL     1      30.617  28.526  40.181  1.00  0.00     0.097 A 
HETATM    6  H10 UNL     1      32.933  27.055  38.630  1.00  0.00     0.167 HD
ENDROOT
BRANCH   1   7
HETATM    7  C5  UNL     1      30.735  28.336  37.573  1.00  0.00    -0.006 A 
HETATM    8  C4  UNL     1      31.181  27.451  36.588  1.00  0.00     0.014 A 
HETATM    9  C3  UNL     1      30.776  27.608  35.261  1.00  0.00     0.013 A 
HETATM   10  C2  UNL     1      29.917  28.654  34.893  1.00  0.00    -0.023 A 
HETATM   11  C1  UNL     1      29.461  29.554  35.880  1.00  0.00    -0.025 A 
HETATM   12  C10 UNL     1      29.499  28.826  33.562  1.00  0.00     0.049 A 
HETATM   13  C6  UNL     1      29.879  29.385  37.212  1.00  0.00     0.026 A 
HETATM   14  C7  UNL     1      28.598  30.596  35.507  1.00  0.00     0.015 A 
HETATM   15  C8  UNL     1      28.191  30.753  34.178  1.00  0.00     0.037 A 
HETATM   16  C9  UNL     1      28.640  29.868  33.200  1.00  0.00     0.069 A 
BRANCH  16  17
HETATM   17  O1  UNL     1      28.322  29.908  31.870  1.00  0.00    -0.356 OA
HETATM   18  C11 UNL     1      28.819  31.010  31.121  1.00  0.00     0.210 C 
ENDBRANCH  16  17
ENDBRANCH   1   7
BRANCH   5  19
HETATM   19  C22 UNL     1      29.396  29.273  40.434  1.00  0.00    -0.002 A 
HETATM   20  C23 UNL     1      29.486  30.600  40.863  1.00  0.00     0.033 A 
HETATM   21  C24 UNL     1      28.318  31.303  41.097  1.00  0.00     0.117 A 
HETATM   22  N3  UNL     1      27.083  30.782  40.931  1.00  0.00    -0.273 NA
HETATM   23  C25 UNL     1      27.019  29.506  40.498  1.00  0.00     0.117 A 
HETATM   24  C26 UNL     1      28.130  28.722  40.234  1.00  0.00     0.033 A 
ENDBRANCH   5  19
BRANCH   3  25
HETATM   25  C15 UNL     1      33.511  26.759  41.381  1.00  0.00     0.010 A 
HETATM   26  C16 UNL     1      34.801  26.620  40.850  1.00  0.00     0.017 A 
HETATM   27  C17 UNL     1      35.809  25.978  41.579  1.00  0.00     0.022 A 
HETATM   28  C18 UNL     1      35.549  25.467  42.853  1.00  0.00     0.031 A 
HETATM   29  C19 UNL     1      34.266  25.593  43.389  1.00  0.00     0.022 A 
HETATM   30  C20 UNL     1      33.261  26.236  42.660  1.00  0.00     0.017 A 
BRANCH  28  31
HETATM   31  S1  UNL     1      36.842  24.632  43.800  1.00  0.00     0.045 S 
HETATM   32  C21 UNL     1      37.569  23.704  42.425  1.00  0.00     0.133 C 
HETATM   33  O2  UNL     1      36.135  23.642  44.679  1.00  0.00    -0.253 OA
ENDBRANCH  28  31
ENDBRANCH   3  25
TORSDOF 5
