REMARK  11 active torsions:
REMARK  status: ('A' for Active; 'I' for Inactive)
REMARK    1  A    between atoms: C1_1  and  C2_2 
REMARK       I    between atoms: C1_1  and  N1_4 
REMARK    2  A    between atoms: N1_4  and  C3_5 
REMARK    3  A    between atoms: C3_5  and  C4_6 
REMARK    4  A    between atoms: C3_5  and  C5_7 
REMARK    5  A    between atoms: C5_7  and  O2_8 
REMARK    6  A    between atoms: N3_14  and  C15_21 
REMARK    7  A    between atoms: C15_21  and  C16_22 
REMARK    8  A    between atoms: C16_22  and  C17_23 
REMARK    9  A    between atoms: C17_23  and  C18_24 
REMARK   10  A    between atoms: C18_24  and  C19_25 
REMARK   11  A    between atoms: C19_25  and  O4_26 
ROOT
HETATM    1  C2  UNL     1      32.020  27.503  40.872  1.00  0.00     0.157 A 
HETATM    2  N2  UNL     1      31.497  28.556  40.207  1.00  0.00    -0.166 NA
HETATM    3  N3  UNL     1      30.862  27.996  39.159  1.00  0.00    -0.268 N 
HETATM    4  C9  UNL     1      30.947  26.629  39.111  1.00  0.00     0.065 A 
HETATM    5  C10 UNL     1      31.703  26.273  40.226  1.00  0.00     0.028 A 
HETATM    6  C11 UNL     1      30.435  25.679  38.214  1.00  0.00     0.032 A 
HETATM    7  C12 UNL     1      30.712  24.332  38.471  1.00  0.00     0.002 A 
HETATM    8  C13 UNL     1      31.468  23.951  39.577  1.00  0.00     0.001 A 
HETATM    9  C14 UNL     1      31.969  24.910  40.463  1.00  0.00     0.016 A 
ENDROOT
BRANCH   1  10
HETATM   10  C1  UNL     1      32.794  27.693  42.108  1.00  0.00     0.273 C 
HETATM   11  O1  UNL     1      32.322  28.153  43.143  1.00  0.00    -0.266 OA
HETATM   12  N1  UNL     1      34.118  27.325  41.982  1.00  0.00    -0.341 N 
HETATM   13  H1  UNL     1      34.408  27.192  41.014  1.00  0.00     0.163 HD
BRANCH  12  14
HETATM   14  C3  UNL     1      35.117  27.714  42.972  1.00  0.00     0.188 C 
BRANCH  14  15
HETATM   15  C4  UNL     1      35.263  26.633  44.065  1.00  0.00     0.010 C 
HETATM   16  C6  UNL     1      36.034  27.170  45.277  1.00  0.00     0.012 C 
HETATM   17  C7  UNL     1      35.975  25.381  43.539  1.00  0.00     0.012 C 
ENDBRANCH  14  15
BRANCH  14  18
HETATM   18  C5  UNL     1      36.439  27.905  42.215  1.00  0.00     0.281 C 
HETATM   19  O3  UNL     1      36.672  27.454  41.099  1.00  0.00    -0.263 OA
BRANCH  18  20
HETATM   20  O2  UNL     1      37.323  28.620  42.968  1.00  0.00    -0.325 OA
HETATM   21  C8  UNL     1      38.690  28.277  42.742  1.00  0.00     0.213 C 
ENDBRANCH  18  20
ENDBRANCH  14  18
ENDBRANCH  12  14
ENDBRANCH   1  10
BRANCH   3  22
HETATM   22  C15 UNL     1      30.166  28.861  38.219  1.00  0.00     0.151 C 
BRANCH  22  23
HETATM   23  C16 UNL     1      28.794  29.282  38.744  1.00  0.00     0.022 C 
BRANCH  23  24
HETATM   24  C17 UNL     1      28.397  30.697  38.317  1.00  0.00     0.012 C 
BRANCH  24  25
HETATM   25  C18 UNL     1      29.593  31.577  37.948  1.00  0.00     0.110 C 
BRANCH  25  26
HETATM   26  C19 UNL     1      29.949  32.517  39.069  1.00  0.00     0.139 C 
HETATM   27  O5  UNL     1      29.470  32.549  40.189  1.00  0.00    -0.650 OA
BRANCH  26  28
HETATM   28  O4  UNL     1      30.889  33.407  38.698  1.00  0.00    -0.776 OA
HETATM   29  H25 UNL     1      30.859  34.094  39.396  1.00  0.00     0.167 HD
ENDBRANCH  26  28
ENDBRANCH  25  26
ENDBRANCH  24  25
ENDBRANCH  23  24
ENDBRANCH  22  23
ENDBRANCH   3  22
TORSDOF 11
