REMARK  12 active torsions:
REMARK  status: ('A' for Active; 'I' for Inactive)
REMARK       I    between atoms: C2_2  and  N1_3 
REMARK    1  A    between atoms: N1_3  and  C3_5 
REMARK    2  A    between atoms: C3_5  and  C4_6 
REMARK    3  A    between atoms: C4_6  and  C5_7 
REMARK    4  A    between atoms: C5_7  and  N2_8 
REMARK    5  A    between atoms: N2_8  and  C6_9 
REMARK    6  A    between atoms: C7_10  and  C8_11 
REMARK    7  A    between atoms: C8_11  and  C9_12 
REMARK    8  A    between atoms: C9_12  and  N3_13 
REMARK    9  A    between atoms: N3_13  and  C10_14 
REMARK   10  A    between atoms: C10_14  and  C11_15 
REMARK   11  A    between atoms: C11_15  and  C12_16 
REMARK   12  A    between atoms: C12_16  and  N4_17 
ROOT
HETATM    1  C6  UNL     1      32.694  26.322  42.216  1.00  0.00     0.269 A 
HETATM    2  C7  UNL     1      32.417  27.807  42.013  1.00  0.00     0.032 A 
HETATM    3 CL1  UNL     1      31.473  26.213  42.912  1.00  0.00    -0.145 Cl
HETATM    4 CL2  UNL     1      31.478  26.210  42.918  1.00  0.00    -0.145 Cl
HETATM    5 CL3  UNL     1      31.476  26.211  42.916  1.00  0.00    -0.145 Cl
HETATM    6  H29 UNL     1      30.669  26.673  41.906  1.00  0.00     0.145 HD
HETATM    7  H30 UNL     1      30.664  26.676  41.901  1.00  0.00     0.145 HD
HETATM    8  H31 UNL     1      30.666  26.675  41.903  1.00  0.00     0.145 HD
ENDROOT
BRANCH   1   9
HETATM    9  N2  UNL     1      34.080  26.069  42.415  1.00  0.00     0.083 NA
HETATM   10  H11 UNL     1      34.277  25.089  42.666  1.00  0.00     0.315 HD
BRANCH   9  11
HETATM   11  C5  UNL     1      34.844  26.484  41.289  1.00  0.00     0.271 C 
BRANCH  11  12
HETATM   12  C4  UNL     1      36.295  26.573  41.634  1.00  0.00     0.050 C 
BRANCH  12  13
HETATM   13  C3  UNL     1      36.599  27.808  42.452  1.00  0.00     0.124 C 
BRANCH  13  14
HETATM   14  N1  UNL     1      36.892  27.447  43.820  1.00  0.00    -0.361 N 
HETATM   15  C2  UNL     1      35.963  27.643  44.872  1.00  0.00     0.213 C 
HETATM   16  C1  UNL     1      36.312  27.246  46.287  1.00  0.00     0.117 C 
HETATM   17  O1  UNL     1      34.843  28.152  44.628  1.00  0.00    -0.274 OA
HETATM   18  H4  UNL     1      37.807  27.021  44.102  1.00  0.00     0.162 HD
ENDBRANCH  13  14
ENDBRANCH  12  13
ENDBRANCH  11  12
ENDBRANCH   9  11
ENDBRANCH   1   9
BRANCH   2  19
HETATM   19  C8  UNL     1      30.949  28.001  41.819  1.00  0.00     0.032 C 
BRANCH  19  20
HETATM   20  C9  UNL     1      30.625  29.261  41.050  1.00  0.00     0.269 C 
BRANCH  20  21
HETATM   21  N3  UNL     1      31.048  29.003  39.675  1.00  0.00     0.083 N 
HETATM   22  H20 UNL     1      30.816  28.024  39.392  1.00  0.00     0.315 HD
BRANCH  21  23
HETATM   23  C10 UNL     1      30.574  30.012  38.772  1.00  0.00     0.271 C 
BRANCH  23  24
HETATM   24  C11 UNL     1      29.686  30.970  39.518  1.00  0.00     0.059 C 
BRANCH  24  25
HETATM   25  C12 UNL     1      29.427  32.261  38.782  1.00  0.00     0.268 C 
BRANCH  25  26
HETATM   26  N4  UNL     1      30.392  33.290  39.055  1.00  0.00     0.078 N 
HETATM   27  H27 UNL     1      29.958  34.182  39.374  1.00  0.00     0.312 HD
HETATM   28  H28 UNL     1      31.111  32.908  39.706  1.00  0.00     0.312 HD
ENDBRANCH  25  26
ENDBRANCH  24  25
ENDBRANCH  23  24
ENDBRANCH  21  23
ENDBRANCH  20  21
ENDBRANCH  19  20
ENDBRANCH   2  19
TORSDOF 12
