REMARK  1 active torsions:
REMARK  status: ('A' for Active; 'I' for Inactive)
REMARK    1  A    between atoms: C17_17  and  O1_21 
ROOT
HETATM    1  C1  UNL     1      27.905  30.362  40.497  1.00  0.00    -0.014 A 
HETATM    2  C2  UNL     1      27.659  29.957  39.167  1.00  0.00     0.062 A 
HETATM    3  C3  UNL     1      28.517  29.004  38.416  1.00  0.00     0.067 C 
HETATM    4  C4  UNL     1      29.888  28.835  39.121  1.00  0.00     0.000 C 
HETATM    5  C5  UNL     1      29.778  28.653  40.687  1.00  0.00    -0.032 C 
HETATM    6  C6  UNL     1      29.078  29.919  41.300  1.00  0.00     0.052 C 
HETATM    7  C7  UNL     1      30.694  27.718  38.450  1.00  0.00     0.006 C 
HETATM    8  C8  UNL     1      32.089  27.590  39.050  1.00  0.00     0.006 C 
HETATM    9  C9  UNL     1      32.051  27.387  40.570  1.00  0.00    -0.005 C 
HETATM   10  C10 UNL     1      31.238  28.526  41.264  1.00  0.00    -0.001 C 
HETATM   11  C11 UNL     1      33.464  27.363  41.163  1.00  0.00     0.001 C 
HETATM   12  C12 UNL     1      33.470  27.113  42.683  1.00  0.00    -0.014 C 
HETATM   13  C13 UNL     1      32.733  28.277  43.359  1.00  0.00     0.012 C 
HETATM   14  C14 UNL     1      31.303  28.433  42.813  1.00  0.00     0.007 C 
HETATM   15  C15 UNL     1      34.478  26.353  40.631  1.00  0.00     0.008 C 
HETATM   16  C16 UNL     1      35.549  26.282  41.734  1.00  0.00     0.033 C 
HETATM   17  C17 UNL     1      34.993  27.089  42.924  1.00  0.00     0.126 C 
HETATM   18  C18 UNL     1      26.868  31.211  40.797  1.00  0.00     0.118 A 
HETATM   19  N1  UNL     1      26.088  31.261  39.676  1.00  0.00    -0.289 N 
HETATM   20  N2  UNL     1      26.548  30.500  38.665  1.00  0.00    -0.179 NA
HETATM   21  C19 UNL     1      32.825  25.773  43.118  1.00  0.00     0.018 C 
HETATM   22  C20 UNL     1      28.926  27.407  41.046  1.00  0.00     0.016 C 
HETATM   23  H23 UNL     1      25.234  31.787  39.529  1.00  0.00     0.188 HD
ENDROOT
BRANCH  17  24
HETATM   24  O1  UNL     1      35.372  26.540  44.172  1.00  0.00    -0.395 OA
HETATM   25  H24 UNL     1      35.492  25.582  44.066  1.00  0.00     0.210 HD
ENDBRANCH  17  24
TORSDOF 1
