REMARK  15 active torsions:
REMARK  status: ('A' for Active; 'I' for Inactive)
REMARK    1  A    between atoms: C1_1  and  C5_5 
REMARK    2  A    between atoms: C2_2  and  C14_14 
REMARK    3  A    between atoms: C3_3  and  C6_6 
REMARK    4  A    between atoms: C4_4  and  C5_5 
REMARK    5  A    between atoms: C6_6  and  C7_7 
REMARK    6  A    between atoms: C8_8  and  C9_9 
REMARK    7  A    between atoms: C9_9  and  C10_10 
REMARK    8  A    between atoms: C11_11  and  C12_12 
REMARK    9  A    between atoms: C12_12  and  C13_13 
REMARK   10  A    between atoms: C13_13  and  C22_22 
REMARK   11  A    between atoms: C14_14  and  C15_15 
REMARK   12  A    between atoms: C16_16  and  C17_17 
REMARK   13  A    between atoms: C17_17  and  C18_18 
REMARK   14  A    between atoms: C19_19  and  C20_20 
REMARK   15  A    between atoms: C22_22  and  O2_24 
ROOT
HETATM    1  C3  UNL     1      31.065  26.054  42.490  1.00  0.00    -0.027 C 
HETATM    2  C4  UNL     1      30.905  24.949  41.739  1.00  0.00    -0.027 C 
ENDROOT
BRANCH   1   3
HETATM    3  C6  UNL     1      32.179  27.062  42.412  1.00  0.00     0.053 C 
BRANCH   3   4
HETATM    4  C7  UNL     1      32.109  28.072  43.522  1.00  0.00    -0.027 C 
HETATM    5  C8  UNL     1      33.138  28.732  44.079  1.00  0.00    -0.027 C 
BRANCH   5   6
HETATM    6  C9  UNL     1      34.582  28.679  43.670  1.00  0.00     0.053 C 
BRANCH   6   7
HETATM    7  C10 UNL     1      35.396  27.836  44.609  1.00  0.00    -0.027 C 
HETATM    8  C11 UNL     1      35.714  26.533  44.499  1.00  0.00    -0.030 C 
BRANCH   8   9
HETATM    9  C12 UNL     1      35.360  25.589  43.380  1.00  0.00     0.037 C 
BRANCH   9  10
HETATM   10  C13 UNL     1      36.436  25.543  42.292  1.00  0.00     0.113 C 
BRANCH  10  11
HETATM   11  C22 UNL     1      36.380  26.725  41.364  1.00  0.00     0.139 C 
HETATM   12  O1  UNL     1      37.019  27.760  41.435  1.00  0.00    -0.650 OA
BRANCH  11  13
HETATM   13  O2  UNL     1      35.503  26.532  40.357  1.00  0.00    -0.776 OA
HETATM   14  H32 UNL     1      34.851  27.249  40.476  1.00  0.00     0.167 HD
ENDBRANCH  11  13
ENDBRANCH  10  11
ENDBRANCH   9  10
ENDBRANCH   8   9
ENDBRANCH   6   7
ENDBRANCH   5   6
ENDBRANCH   3   4
ENDBRANCH   1   3
BRANCH   2  15
HETATM   15  C5  UNL     1      31.806  24.459  40.649  1.00  0.00     0.053 C 
BRANCH  15  16
HETATM   16  C1  UNL     1      31.235  24.474  39.252  1.00  0.00    -0.027 C 
HETATM   17  C2  UNL     1      30.821  25.466  38.440  1.00  0.00    -0.027 C 
BRANCH  17  18
HETATM   18  C14 UNL     1      30.736  26.950  38.674  1.00  0.00     0.053 C 
BRANCH  18  19
HETATM   19  C15 UNL     1      29.404  27.333  39.261  1.00  0.00    -0.027 C 
HETATM   20  C16 UNL     1      29.111  28.368  40.070  1.00  0.00    -0.027 C 
BRANCH  20  21
HETATM   21  C17 UNL     1      30.039  29.420  40.600  1.00  0.00     0.053 C 
BRANCH  21  22
HETATM   22  C18 UNL     1      29.719  30.772  40.029  1.00  0.00    -0.027 C 
HETATM   23  C19 UNL     1      28.803  31.655  40.475  1.00  0.00    -0.031 C 
BRANCH  23  24
HETATM   24  C20 UNL     1      27.843  31.460  41.614  1.00  0.00     0.022 C 
HETATM   25  C21 UNL     1      26.590  30.729  41.159  1.00  0.00     0.009 C 
ENDBRANCH  23  24
ENDBRANCH  21  22
ENDBRANCH  20  21
ENDBRANCH  18  19
ENDBRANCH  17  18
ENDBRANCH  15  16
ENDBRANCH   2  15
TORSDOF 15
