REMARK  5 active torsions:
REMARK  status: ('A' for Active; 'I' for Inactive)
REMARK    1  A    between atoms: C4_4  and  C7_8 
REMARK    2  A    between atoms: C8_9  and  C11_14 
REMARK    3  A    between atoms: C9_11  and  C10_12 
REMARK    4  A    between atoms: C11_14  and  N2_15 
REMARK    5  A    between atoms: C13_17  and  C15_21 
ROOT
HETATM    1  C7  UNL     1      33.475  27.901  42.267  1.00  0.00     0.065 A 
HETATM    2  C8  UNL     1      32.337  27.354  41.451  1.00  0.00     0.116 A 
HETATM    3  N1  UNL     1      31.249  28.317  41.336  1.00  0.00    -0.350 N 
HETATM    4  C9  UNL     1      30.820  28.845  40.104  1.00  0.00     0.259 A 
HETATM    5  O1  UNL     1      31.359  28.509  39.020  1.00  0.00    -0.267 OA
HETATM    6 CL3  UNL     1      31.484  28.394  41.870  1.00  0.00    -0.145 Cl
HETATM    7  H8  UNL     1      30.771  28.626  42.203  1.00  0.00     0.163 HD
HETATM    8  H18 UNL     1      30.328  29.129  41.742  1.00  0.00     0.145 HD
ENDROOT
BRANCH   4   9
HETATM    9  C10 UNL     1      29.711  29.825  40.001  1.00  0.00     0.075 A 
HETATM   10  C12 UNL     1      28.581  29.719  39.255  1.00  0.00     0.040 A 
HETATM   11  C13 UNL     1      27.674  30.733  39.291  1.00  0.00     0.024 A 
HETATM   12  C14 UNL     1      27.999  31.776  40.095  1.00  0.00     0.088 A 
HETATM   13  S1  UNL     1      29.545  31.308  40.761  1.00  0.00    -0.072 SA
HETATM   14 CL1  UNL     1      27.211  33.253  40.612  1.00  0.00    -0.075 Cl
BRANCH  11  15
HETATM   15  C15 UNL     1      26.354  30.579  38.607  1.00  0.00     0.088 A 
HETATM   16  C16 UNL     1      26.122  30.860  37.257  1.00  0.00     0.082 A 
HETATM   17  C17 UNL     1      24.763  30.785  36.993  1.00  0.00     0.165 A 
HETATM   18 CL2  UNL     1      27.301  31.204  36.010  1.00  0.00    -0.080 Cl
HETATM   19  N3  UNL     1      24.191  30.469  38.140  1.00  0.00    -0.183 NA
HETATM   20  N4  UNL     1      25.146  30.347  39.111  1.00  0.00    -0.272 N 
HETATM   21  C18 UNL     1      24.733  30.108  40.471  1.00  0.00     0.180 C 
ENDBRANCH  11  15
ENDBRANCH   4   9
BRANCH   2  22
HETATM   22  C11 UNL     1      31.791  26.047  41.988  1.00  0.00     0.291 C 
BRANCH  22  23
HETATM   23  N2  UNL     1      31.819  24.975  41.038  1.00  0.00     0.080 N 
HETATM   24  H11 UNL     1      32.667  24.395  41.243  1.00  0.00     0.312 HD
HETATM   25  H12 UNL     1      31.993  25.374  40.076  1.00  0.00     0.312 HD
ENDBRANCH  22  23
ENDBRANCH   2  22
BRANCH   1  26
HETATM   26  C4  UNL     1      34.562  26.911  42.360  1.00  0.00    -0.053 A 
HETATM   27  C3  UNL     1      34.866  26.299  43.582  1.00  0.00     0.049 A 
HETATM   28  C2  UNL     1      35.875  25.368  43.681  1.00  0.00     0.116 A 
HETATM   29  C1  UNL     1      36.616  25.011  42.572  1.00  0.00     0.042 A 
HETATM   30  F1  UNL     1      36.194  24.755  44.860  1.00  0.00    -0.206 F 
HETATM   31  C6  UNL     1      36.337  25.597  41.359  1.00  0.00     0.003 A 
HETATM   32  C5  UNL     1      35.321  26.529  41.277  1.00  0.00     0.007 A 
ENDBRANCH   1  26
TORSDOF 5
