REMARK  6 active torsions:
REMARK  status: ('A' for Active; 'I' for Inactive)
REMARK    1  A    between atoms: C1_1  and  O1_11 
REMARK    2  A    between atoms: C2_2  and  O2_13 
REMARK    3  A    between atoms: C7_7  and  O3_15 
REMARK    4  A    between atoms: O3_15  and  C12_16 
REMARK    5  A    between atoms: C15_19  and  N2_23 
REMARK       I    between atoms: N2_23  and  C18_24 
REMARK       I    between atoms: C18_24  and  N3_25 
REMARK    6  A    between atoms: N3_25  and  C19_27 
ROOT
HETATM    1  C12 UNL     1      28.942  29.806  39.605  1.00  0.00     0.079 A 
HETATM    2  C13 UNL     1      29.975  30.667  39.245  1.00  0.00     0.081 A 
HETATM    3  C14 UNL     1      29.742  31.639  38.279  1.00  0.00     0.145 A 
HETATM    4  C15 UNL     1      28.498  31.771  37.645  1.00  0.00     0.075 A 
HETATM    5  C16 UNL     1      27.477  30.890  38.000  1.00  0.00     0.035 A 
HETATM    6  C17 UNL     1      27.700  29.905  38.972  1.00  0.00     0.040 A 
HETATM    7  F1  UNL     1      30.741  32.473  37.946  1.00  0.00    -0.204 F 
ENDROOT
BRANCH   1   8
HETATM    8  O3  UNL     1      29.246  28.844  40.544  1.00  0.00    -0.310 OA
BRANCH   8   9
HETATM    9  C7  UNL     1      29.949  27.740  40.109  1.00  0.00     0.090 A 
HETATM   10  C4  UNL     1      31.041  27.280  40.871  1.00  0.00     0.029 A 
HETATM   11  C3  UNL     1      31.493  27.918  42.048  1.00  0.00     0.056 A 
HETATM   12  C5  UNL     1      31.699  26.127  40.406  1.00  0.00     0.072 A 
HETATM   13  C2  UNL     1      32.590  27.421  42.757  1.00  0.00     0.102 A 
HETATM   14  C1  UNL     1      33.242  26.270  42.287  1.00  0.00     0.103 A 
HETATM   15  C6  UNL     1      32.786  25.645  41.121  1.00  0.00     0.072 A 
HETATM   16  N1  UNL     1      31.315  25.473  39.295  1.00  0.00    -0.260 NA
HETATM   17  C9  UNL     1      30.248  25.936  38.609  1.00  0.00     0.120 A 
HETATM   18  C8  UNL     1      29.530  27.053  38.974  1.00  0.00     0.057 A 
BRANCH  13  19
HETATM   19  O2  UNL     1      33.093  27.980  43.904  1.00  0.00    -0.353 OA
HETATM   20  C11 UNL     1      34.144  28.927  43.774  1.00  0.00     0.210 C 
ENDBRANCH  13  19
BRANCH  14  21
HETATM   21  O1  UNL     1      34.312  25.837  43.033  1.00  0.00    -0.353 OA
HETATM   22  C10 UNL     1      35.581  25.782  42.396  1.00  0.00     0.210 C 
ENDBRANCH  14  21
ENDBRANCH   8   9
ENDBRANCH   1   8
BRANCH   4  23
HETATM   23  N2  UNL     1      28.378  32.796  36.681  1.00  0.00    -0.306 N 
HETATM   24  C18 UNL     1      28.018  32.675  35.350  1.00  0.00     0.325 C 
HETATM   25  N3  UNL     1      28.006  33.915  34.734  1.00  0.00    -0.306 N 
HETATM   26  O4  UNL     1      27.748  31.619  34.794  1.00  0.00    -0.247 OA
HETATM   27  H15 UNL     1      28.217  34.722  35.306  1.00  0.00     0.171 HD
HETATM   28  H14 UNL     1      28.601  33.721  37.022  1.00  0.00     0.171 HD
BRANCH  25  29
HETATM   29  C19 UNL     1      27.709  34.213  33.387  1.00  0.00     0.075 A 
HETATM   30  C20 UNL     1      26.992  35.395  33.141  1.00  0.00     0.146 A 
HETATM   31  C21 UNL     1      26.645  35.790  31.855  1.00  0.00     0.086 A 
HETATM   32  F2  UNL     1      26.627  36.168  34.178  1.00  0.00    -0.204 F 
HETATM   33  C22 UNL     1      27.024  34.989  30.791  1.00  0.00     0.119 A 
HETATM   34  C23 UNL     1      27.735  33.812  30.998  1.00  0.00     0.044 A 
HETATM   35  F3  UNL     1      26.700  35.352  29.543  1.00  0.00    -0.206 F 
HETATM   36  C24 UNL     1      28.080  33.421  32.298  1.00  0.00     0.036 A 
ENDBRANCH  25  29
ENDBRANCH   4  23
TORSDOF 6
