REMARK  7 active torsions:
REMARK  status: ('A' for Active; 'I' for Inactive)
REMARK    1  A    between atoms: C2_2  and  C15_17 
REMARK    2  A    between atoms: N2_4  and  C8_10 
REMARK    3  A    between atoms: C8_10  and  C9_11 
REMARK       I    between atoms: C15_17  and  N3_19 
REMARK    4  A    between atoms: N3_19  and  C16_20 
REMARK    5  A    between atoms: C16_20  and  C17_21 
REMARK    6  A    between atoms: C16_20  and  C21_25 
REMARK    7  A    between atoms: C21_25  and  O2_26 
ROOT
HETATM    1  C1  UNL     1      31.107  26.582  39.114  1.00  0.00     0.028 A 
HETATM    2  C2  UNL     1      31.140  28.000  39.304  1.00  0.00     0.157 A 
HETATM    3  N1  UNL     1      31.612  28.312  40.525  1.00  0.00    -0.166 NA
HETATM    4  N2  UNL     1      31.902  27.127  41.088  1.00  0.00    -0.268 N 
HETATM    5  C3  UNL     1      31.623  26.044  40.292  1.00  0.00     0.065 A 
HETATM    6  C4  UNL     1      31.766  24.664  40.494  1.00  0.00     0.032 A 
HETATM    7  C5  UNL     1      31.359  23.813  39.463  1.00  0.00     0.002 A 
HETATM    8  C6  UNL     1      30.822  24.321  38.283  1.00  0.00     0.001 A 
HETATM    9  C7  UNL     1      30.686  25.702  38.096  1.00  0.00     0.016 A 
ENDROOT
BRANCH   2  10
HETATM   10  C15 UNL     1      30.741  29.053  38.357  1.00  0.00     0.273 C 
HETATM   11  O1  UNL     1      31.050  29.045  37.169  1.00  0.00    -0.266 OA
HETATM   12  N3  UNL     1      29.966  30.058  38.910  1.00  0.00    -0.340 N 
HETATM   13  H18 UNL     1      29.878  30.077  39.917  1.00  0.00     0.163 HD
BRANCH  12  14
HETATM   14  C16 UNL     1      29.670  31.287  38.170  1.00  0.00     0.190 C 
BRANCH  14  15
HETATM   15  C17 UNL     1      28.243  31.270  37.544  1.00  0.00    -0.021 C 
HETATM   16  C18 UNL     1      27.588  32.664  37.524  1.00  0.00     0.017 C 
HETATM   17  C19 UNL     1      28.300  30.738  36.097  1.00  0.00     0.017 C 
HETATM   18  C20 UNL     1      27.340  30.317  38.356  1.00  0.00     0.017 C 
ENDBRANCH  14  15
BRANCH  14  19
HETATM   19  C21 UNL     1      29.888  32.446  39.151  1.00  0.00     0.164 C 
HETATM   20  O3  UNL     1      29.359  32.572  40.248  1.00  0.00    -0.648 OA
BRANCH  19  21
HETATM   21  O2  UNL     1      30.739  33.385  38.695  1.00  0.00    -0.775 OA
HETATM   22  H29 UNL     1      31.629  33.043  38.924  1.00  0.00     0.167 HD
ENDBRANCH  19  21
ENDBRANCH  14  19
ENDBRANCH  12  14
ENDBRANCH   2  10
BRANCH   4  23
HETATM   23  C8  UNL     1      32.437  27.101  42.438  1.00  0.00     0.156 C 
BRANCH  23  24
HETATM   24  C9  UNL     1      33.929  27.480  42.515  1.00  0.00     0.005 C 
HETATM   25  C10 UNL     1      34.270  28.159  43.858  1.00  0.00     0.006 C 
HETATM   26  C11 UNL     1      35.746  28.016  44.206  1.00  0.00     0.000 C 
HETATM   27  C12 UNL     1      36.144  26.548  44.375  1.00  0.00     0.000 C 
HETATM   28  C13 UNL     1      35.305  25.590  43.528  1.00  0.00     0.000 C 
HETATM   29  C14 UNL     1      34.820  26.249  42.243  1.00  0.00     0.006 C 
ENDBRANCH  23  24
ENDBRANCH   4  23
TORSDOF 7
