REMARK  0 active torsions:
REMARK  status: ('A' for Active; 'I' for Inactive)
ROOT
HETATM    1  C1  UNL     1      29.804  29.099  41.204  1.00  0.00     0.084 C 
HETATM    2  C2  UNL     1      29.544  28.012  40.199  1.00  0.00     0.149 C 
HETATM    3  C3  UNL     1      30.282  26.735  40.350  1.00  0.00     0.054 C 
HETATM    4  C4  UNL     1      31.255  26.560  41.266  1.00  0.00    -0.064 C 
HETATM    5  C5  UNL     1      31.758  27.714  42.162  1.00  0.00    -0.016 C 
HETATM    6  C6  UNL     1      31.267  29.087  41.610  1.00  0.00     0.022 C 
HETATM    7  C7  UNL     1      31.903  25.195  41.514  1.00  0.00     0.012 C 
HETATM    8  C8  UNL     1      33.433  25.301  41.463  1.00  0.00     0.014 C 
HETATM    9  C9  UNL     1      33.957  26.335  42.465  1.00  0.00    -0.004 C 
HETATM   10  C10 UNL     1      33.335  27.733  42.166  1.00  0.00     0.002 C 
HETATM   11  C11 UNL     1      35.483  26.460  42.401  1.00  0.00     0.006 C 
HETATM   12  C12 UNL     1      36.018  27.449  43.456  1.00  0.00     0.021 C 
HETATM   13  C13 UNL     1      35.493  28.836  43.101  1.00  0.00     0.018 C 
HETATM   14  C14 UNL     1      33.954  28.848  43.060  1.00  0.00     0.007 C 
HETATM   15  C15 UNL     1      36.358  25.223  42.572  1.00  0.00     0.013 C 
HETATM   16  C16 UNL     1      37.768  25.820  42.698  1.00  0.00     0.079 C 
HETATM   17  C17 UNL     1      37.502  27.211  43.249  1.00  0.00     0.135 C 
HETATM   18  O1  UNL     1      28.698  28.121  39.316  1.00  0.00    -0.293 OA
HETATM   19  C18 UNL     1      31.178  27.517  43.581  1.00  0.00     0.020 C 
HETATM   20  C19 UNL     1      35.718  27.095  44.925  1.00  0.00     0.024 C 
HETATM   21  O2  UNL     1      38.381  28.020  43.513  1.00  0.00    -0.297 OA
HETATM   22  C20 UNL     1      31.453  24.055  40.589  1.00  0.00     0.015 C 
ENDROOT
TORSDOF 0
