REMARK  7 active torsions:
REMARK  status: ('A' for Active; 'I' for Inactive)
REMARK    1  A    between atoms: C1_1  and  S1_7 
REMARK    2  A    between atoms: C2_3  and  N3_13 
REMARK    3  A    between atoms: C4_5  and  C11_17 
REMARK    4  A    between atoms: S1_7  and  C5_8 
REMARK    5  A    between atoms: C5_8  and  C6_9 
REMARK    6  A    between atoms: N3_13  and  C8_14 
REMARK    7  A    between atoms: N4_25  and  C19_26 
ROOT
HETATM    1  C11 UNL     1      29.488  28.609  40.346  1.00  0.00    -0.006 A 
HETATM    2  C12 UNL     1      29.841  27.318  39.904  1.00  0.00     0.027 A 
HETATM    3  C13 UNL     1      30.941  26.634  40.466  1.00  0.00    -0.007 A 
HETATM    4  C14 UNL     1      31.686  27.250  41.472  1.00  0.00     0.044 A 
HETATM    5  C15 UNL     1      31.354  28.526  41.948  1.00  0.00     0.031 A 
HETATM    6  C16 UNL     1      30.256  29.181  41.373  1.00  0.00     0.016 A 
HETATM    7  C17 UNL     1      31.512  25.356  40.240  1.00  0.00     0.031 A 
HETATM    8  C18 UNL     1      32.575  25.214  41.101  1.00  0.00     0.092 A 
HETATM    9  N4  UNL     1      32.695  26.368  41.834  1.00  0.00    -0.351 N 
ENDROOT
BRANCH   1  10
HETATM   10  C4  UNL     1      28.338  29.339  39.775  1.00  0.00     0.073 A 
HETATM   11  C3  UNL     1      27.160  29.562  40.473  1.00  0.00     0.082 A 
HETATM   12  C2  UNL     1      26.155  30.279  39.845  1.00  0.00     0.129 A 
HETATM   13  N1  UNL     1      26.287  30.746  38.599  1.00  0.00    -0.202 NA
HETATM   14  C1  UNL     1      27.451  30.448  37.998  1.00  0.00     0.249 A 
HETATM   15  N2  UNL     1      28.497  29.785  38.515  1.00  0.00    -0.218 NA
BRANCH  12  16
HETATM   16  N3  UNL     1      24.923  30.531  40.466  1.00  0.00    -0.370 N 
HETATM   17  H9  UNL     1      25.118  30.893  41.399  1.00  0.00     0.161 HD
BRANCH  16  18
HETATM   18  C8  UNL     1      23.797  29.615  40.312  1.00  0.00     0.083 A 
HETATM   19  C9  UNL     1      22.495  30.069  39.716  1.00  0.00     0.027 A 
HETATM   20  C10 UNL     1      22.582  29.774  41.184  1.00  0.00     0.027 A 
ENDBRANCH  16  18
ENDBRANCH  12  16
BRANCH  14  21
HETATM   21  S1  UNL     1      27.665  31.074  36.340  1.00  0.00     0.211 S 
HETATM   22  O1  UNL     1      28.107  32.458  36.426  1.00  0.00    -0.220 OA
HETATM   23  O2  UNL     1      26.481  30.763  35.555  1.00  0.00    -0.220 OA
BRANCH  21  24
HETATM   24  C5  UNL     1      29.035  30.133  35.703  1.00  0.00     0.148 C 
BRANCH  24  25
HETATM   25  C6  UNL     1      28.943  29.691  34.247  1.00  0.00     0.011 C 
HETATM   26  C7  UNL     1      29.823  28.501  33.898  1.00  0.00     0.006 C 
ENDBRANCH  24  25
ENDBRANCH  21  24
ENDBRANCH  14  21
ENDBRANCH   1  10
BRANCH   9  27
HETATM   27  C19 UNL     1      33.687  26.625  42.883  1.00  0.00     0.094 C 
HETATM   28  C20 UNL     1      34.663  27.766  42.569  1.00  0.00     0.066 C 
HETATM   29  C21 UNL     1      35.865  27.788  43.531  1.00  0.00     0.153 C 
HETATM   30  N5  UNL     1      36.573  26.505  43.615  1.00  0.00     0.101 N 
HETATM   31  C26 UNL     1      35.423  28.160  44.959  1.00  0.00     0.048 C 
HETATM   32  C27 UNL     1      36.861  28.863  43.050  1.00  0.00     0.048 C 
HETATM   33  C22 UNL     1      35.904  25.299  43.116  1.00  0.00     0.153 C 
HETATM   34  H23 UNL     1      37.522  26.568  43.248  1.00  0.00     0.317 HD
HETATM   35  C23 UNL     1      34.380  25.332  43.339  1.00  0.00     0.066 C 
HETATM   36  C24 UNL     1      36.267  25.050  41.641  1.00  0.00     0.048 C 
HETATM   37  C25 UNL     1      36.481  24.123  43.932  1.00  0.00     0.048 C 
ENDBRANCH   9  27
TORSDOF 7
