REMARK  19 active torsions:
REMARK  status: ('A' for Active; 'I' for Inactive)
REMARK    1  A    between atoms: C1_1  and  O1_2 
REMARK    2  A    between atoms: C1_1  and  C2_3 
REMARK    3  A    between atoms: C2_3  and  C3_4 
REMARK    4  A    between atoms: C2_3  and  N1_7 
REMARK    5  A    between atoms: C3_4  and  C4_5 
REMARK    6  A    between atoms: C3_4  and  O2_8 
REMARK    7  A    between atoms: C4_5  and  C5_6 
REMARK    8  A    between atoms: C5_6  and  C6_9 
REMARK    9  A    between atoms: C6_9  and  C7_10 
REMARK   10  A    between atoms: C7_10  and  C8_11 
REMARK   11  A    between atoms: C8_11  and  C9_12 
REMARK   12  A    between atoms: C9_12  and  C10_13 
REMARK   13  A    between atoms: C10_13  and  C11_14 
REMARK   14  A    between atoms: C11_14  and  C12_15 
REMARK   15  A    between atoms: C12_15  and  C13_16 
REMARK   16  A    between atoms: C13_16  and  C14_17 
REMARK   17  A    between atoms: C14_17  and  C15_18 
REMARK   18  A    between atoms: C15_18  and  C16_19 
REMARK   19  A    between atoms: C16_19  and  C17_20 
ROOT
HETATM    1  C6  UNL     1      30.750  28.577  38.917  1.00  0.00     0.000 C 
ENDROOT
BRANCH   1   2
HETATM    2  C5  UNL     1      29.272  28.311  39.209  1.00  0.00     0.002 C 
BRANCH   2   3
HETATM    3  C4  UNL     1      28.480  29.540  39.670  1.00  0.00     0.034 C 
BRANCH   3   4
HETATM    4  C3  UNL     1      29.245  30.772  40.182  1.00  0.00     0.153 C 
BRANCH   4   5
HETATM    5  C2  UNL     1      29.023  32.087  39.376  1.00  0.00     0.269 C 
BRANCH   5   6
HETATM    6  C1  UNL     1      30.186  32.296  38.375  1.00  0.00     0.202 C 
BRANCH   6   7
HETATM    7  O1  UNL     1      30.964  33.439  38.741  1.00  0.00    -0.399 OA
HETATM    8  H3  UNL     1      31.110  33.381  39.703  1.00  0.00     0.209 HD
ENDBRANCH   6   7
ENDBRANCH   5   6
BRANCH   5   9
HETATM    9  N1  UNL     1      28.924  33.260  40.267  1.00  0.00     0.087 N 
HETATM   10  H10 UNL     1      28.000  33.301  40.693  1.00  0.00     0.313 HD
HETATM   11  H11 UNL     1      28.979  34.094  39.674  1.00  0.00     0.313 HD
ENDBRANCH   5   9
ENDBRANCH   4   5
BRANCH   4  12
HETATM   12  O2  UNL     1      28.979  30.976  41.574  1.00  0.00    -0.393 OA
HETATM   13  H12 UNL     1      29.764  30.635  42.052  1.00  0.00     0.210 HD
ENDBRANCH   4  12
ENDBRANCH   3   4
ENDBRANCH   2   3
ENDBRANCH   1   2
BRANCH   1  14
HETATM   14  C7  UNL     1      31.540  27.268  38.836  1.00  0.00     0.000 C 
BRANCH  14  15
HETATM   15  C8  UNL     1      30.736  26.041  39.276  1.00  0.00     0.000 C 
BRANCH  15  16
HETATM   16  C9  UNL     1      31.461  25.058  40.202  1.00  0.00     0.000 C 
BRANCH  16  17
HETATM   17  C10 UNL     1      31.055  25.196  41.671  1.00  0.00     0.000 C 
BRANCH  17  18
HETATM   18  C11 UNL     1      31.335  26.585  42.254  1.00  0.00     0.000 C 
BRANCH  18  19
HETATM   19  C12 UNL     1      32.724  26.793  42.868  1.00  0.00     0.000 C 
BRANCH  19  20
HETATM   20  C13 UNL     1      33.733  27.411  41.896  1.00  0.00     0.000 C 
BRANCH  20  21
HETATM   21  C14 UNL     1      34.711  26.392  41.304  1.00  0.00     0.000 C 
BRANCH  21  22
HETATM   22  C15 UNL     1      36.197  26.724  41.457  1.00  0.00     0.000 C 
BRANCH  22  23
HETATM   23  C16 UNL     1      36.966  25.954  42.537  1.00  0.00    -0.000 C 
BRANCH  23  24
HETATM   24  C17 UNL     1      36.108  25.441  43.697  1.00  0.00    -0.005 C 
HETATM   25  C18 UNL     1      36.350  23.981  44.045  1.00  0.00     0.005 C 
ENDBRANCH  23  24
ENDBRANCH  22  23
ENDBRANCH  21  22
ENDBRANCH  20  21
ENDBRANCH  19  20
ENDBRANCH  18  19
ENDBRANCH  17  18
ENDBRANCH  16  17
ENDBRANCH  15  16
ENDBRANCH  14  15
ENDBRANCH   1  14
TORSDOF 19
