REMARK  0 active torsions:
REMARK  status: ('A' for Active; 'I' for Inactive)
ROOT
HETATM    1  C1  UNL     1      31.401  28.161  42.444  1.00  0.00     0.011 A 
HETATM    2  C2  UNL     1      31.580  27.645  41.149  1.00  0.00    -0.032 A 
HETATM    3  C3  UNL     1      32.849  27.168  40.787  1.00  0.00     0.011 A 
HETATM    4  C4  UNL     1      33.910  27.199  41.694  1.00  0.00     0.019 A 
HETATM    5  C5  UNL     1      33.711  27.712  42.973  1.00  0.00     0.011 A 
HETATM    6  C6  UNL     1      32.461  28.193  43.353  1.00  0.00     0.019 A 
HETATM    7 BR1  UNL     1      35.147  27.755  44.202  1.00  0.00    -0.051 Br
HETATM    8  C7  UNL     1      30.293  29.002  39.399  1.00  0.00     0.129 A 
HETATM    9  C8  UNL     1      30.416  27.651  40.174  1.00  0.00     0.156 A 
HETATM   10  N1  UNL     1      30.503  26.570  39.123  1.00  0.00    -0.260 N 
HETATM   11  C9  UNL     1      30.693  27.255  38.039  1.00  0.00     0.139 A 
HETATM   12  N2  UNL     1      30.783  28.614  38.095  1.00  0.00    -0.259 N 
HETATM   13  S1  UNL     1      30.743  26.641  36.422  1.00  0.00    -0.097 SA
HETATM   14  C10 UNL     1      30.869  28.342  35.741  1.00  0.00     0.097 C 
HETATM   15  C11 UNL     1      30.380  29.265  36.868  1.00  0.00     0.108 A 
HETATM   16  O1  UNL     1      32.270  26.910  40.897  1.00  0.00    -0.769 OA
HETATM   17  C12 UNL     1      31.686  28.023  40.431  1.00  0.00     0.243 A 
HETATM   18  C13 UNL     1      31.378  27.948  38.905  1.00  0.00     0.243 A 
HETATM   19  O2  UNL     1      31.438  28.969  41.153  1.00  0.00    -0.642 OA
HETATM   20  O3  UNL     1      31.626  27.002  38.182  1.00  0.00    -0.642 OA
HETATM   21  O4  UNL     1      30.794  29.060  38.439  1.00  0.00    -0.769 OA
HETATM   22  H12 UNL     1      32.407  27.085  41.850  1.00  0.00     0.168 HD
HETATM   23  H13 UNL     1      30.657  28.886  37.486  1.00  0.00     0.168 HD
ENDROOT
TORSDOF 0
