REMARK  3 active torsions:
REMARK  status: ('A' for Active; 'I' for Inactive)
REMARK    1  A    between atoms: C7_9  and  N2_11 
REMARK    2  A    between atoms: N2_11  and  S1_12 
REMARK    3  A    between atoms: S1_12  and  C8_13 
ROOT
HETATM    1  N2  UNL     1      31.866  26.131  40.273  1.00  0.00    -0.143 NA
HETATM    2  H4  UNL     1      31.314  25.328  40.572  1.00  0.00     0.149 HD
ENDROOT
BRANCH   1   3
HETATM    3  C7  UNL     1      33.097  26.192  41.011  1.00  0.00     0.238 A 
HETATM    4  N1  UNL     1      34.163  26.748  40.478  1.00  0.00    -0.210 NA
HETATM    5  C4  UNL     1      35.097  26.677  41.481  1.00  0.00     0.096 A 
HETATM    6  C3  UNL     1      36.438  27.080  41.521  1.00  0.00     0.058 A 
HETATM    7  C5  UNL     1      34.528  26.106  42.609  1.00  0.00     0.107 A 
HETATM    8  C2  UNL     1      37.140  26.875  42.716  1.00  0.00     0.036 A 
HETATM    9  C1  UNL     1      36.533  26.292  43.837  1.00  0.00     0.026 A 
HETATM   10 CL1  UNL     1      38.792  27.356  42.809  1.00  0.00    -0.084 Cl
HETATM   11  C6  UNL     1      35.192  25.889  43.810  1.00  0.00     0.041 A 
HETATM   12  O1  UNL     1      33.229  25.815  42.316  1.00  0.00    -0.279 OA
ENDBRANCH   1   3
BRANCH   1  13
HETATM   13  S1  UNL     1      30.942  27.530  40.428  1.00  0.00     0.250 S 
HETATM   14  O2  UNL     1      31.661  28.541  41.167  1.00  0.00    -0.205 OA
HETATM   15  O3  UNL     1      29.643  27.045  40.845  1.00  0.00    -0.205 OA
BRANCH  13  16
HETATM   16  C8  UNL     1      30.767  28.118  38.766  1.00  0.00     0.098 A 
HETATM   17  C9  UNL     1      30.395  29.446  38.536  1.00  0.00     0.057 A 
HETATM   18  C10 UNL     1      30.253  29.902  37.219  1.00  0.00     0.027 A 
HETATM   19 CL2  UNL     1      30.113  30.598  39.789  1.00  0.00    -0.083 Cl
HETATM   20  C11 UNL     1      30.484  29.043  36.142  1.00  0.00     0.025 A 
HETATM   21  C12 UNL     1      30.864  27.726  36.382  1.00  0.00     0.035 A 
HETATM   22  C13 UNL     1      31.009  27.255  37.686  1.00  0.00     0.050 A 
HETATM   23 CL3  UNL     1      31.158  26.668  35.057  1.00  0.00    -0.084 Cl
ENDBRANCH  13  16
ENDBRANCH   1  13
TORSDOF 3
