REMARK  11 active torsions:
REMARK  status: ('A' for Active; 'I' for Inactive)
REMARK    1  A    between atoms: C1_1  and  C10_11 
REMARK    2  A    between atoms: C2_2  and  C7_8 
REMARK    3  A    between atoms: C7_8  and  C8_9 
REMARK    4  A    between atoms: C9_10  and  C13_17 
REMARK    5  A    between atoms: C10_11  and  N1_12 
REMARK    6  A    between atoms: N1_12  and  N2_13 
REMARK       I    between atoms: N2_13  and  C11_14 
REMARK       I    between atoms: C11_14  and  N3_15 
REMARK    7  A    between atoms: N3_15  and  C12_16 
REMARK    8  A    between atoms: C13_17  and  C14_18 
REMARK    9  A    between atoms: C14_18  and  C15_19 
REMARK   10  A    between atoms: C15_19  and  C21_26 
REMARK   11  A    between atoms: C21_26  and  O4_28 
ROOT
HETATM    1  C1  UNL     1      30.244  26.577  40.101  1.00  0.00     0.036 C 
HETATM    2  C2  UNL     1      29.635  27.969  40.414  1.00  0.00     0.026 C 
HETATM    3  C3  UNL     1      30.652  28.911  39.750  1.00  0.00     0.127 C 
HETATM    4  C4  UNL     1      30.677  28.826  38.226  1.00  0.00     0.035 C 
HETATM    5  C5  UNL     1      31.304  27.452  37.992  1.00  0.00     0.035 C 
HETATM    6  C6  UNL     1      31.568  26.971  39.419  1.00  0.00     0.127 C 
HETATM    7  O1  UNL     1      31.884  28.223  40.076  1.00  0.00    -0.380 OA
ENDROOT
BRANCH   1   8
HETATM    8  C10 UNL     1      30.463  25.768  41.390  1.00  0.00     0.118 C 
BRANCH   8   9
HETATM    9  N1  UNL     1      31.131  26.586  42.414  1.00  0.00    -0.236 NA
HETATM   10  H15 UNL     1      30.633  26.465  43.308  1.00  0.00     0.146 HD
BRANCH   9  11
HETATM   11  N2  UNL     1      32.450  26.102  42.634  1.00  0.00    -0.273 N 
HETATM   12  C11 UNL     1      33.451  27.046  42.902  1.00  0.00     0.335 C 
HETATM   13  N3  UNL     1      34.683  26.434  43.013  1.00  0.00    -0.308 N 
HETATM   14  O2  UNL     1      33.196  28.239  43.027  1.00  0.00    -0.246 OA
HETATM   15  H17 UNL     1      34.661  25.428  43.095  1.00  0.00     0.170 HD
HETATM   16  H16 UNL     1      32.734  25.320  42.052  1.00  0.00     0.185 HD
BRANCH  13  17
HETATM   17  C12 UNL     1      35.934  27.052  43.204  1.00  0.00     0.036 A 
HETATM   18  C16 UNL     1      36.315  27.335  44.522  1.00  0.00     0.029 A 
HETATM   19  C17 UNL     1      37.545  27.941  44.795  1.00  0.00     0.002 A 
HETATM   20  C18 UNL     1      38.405  28.270  43.751  1.00  0.00     0.000 A 
HETATM   21  C19 UNL     1      38.036  27.989  42.437  1.00  0.00     0.002 A 
HETATM   22  C20 UNL     1      36.807  27.380  42.165  1.00  0.00     0.029 A 
ENDBRANCH  13  17
ENDBRANCH   9  11
ENDBRANCH   8   9
ENDBRANCH   1   8
BRANCH   2  23
HETATM   23  C7  UNL     1      28.193  28.162  39.942  1.00  0.00     0.034 C 
BRANCH  23  24
HETATM   24  C8  UNL     1      27.554  29.379  40.556  1.00  0.00    -0.030 C 
HETATM   25  C9  UNL     1      27.052  30.438  39.903  1.00  0.00    -0.031 C 
BRANCH  25  26
HETATM   26  C13 UNL     1      27.075  30.676  38.418  1.00  0.00     0.027 C 
BRANCH  26  27
HETATM   27  C14 UNL     1      27.690  32.026  38.029  1.00  0.00     0.014 C 
BRANCH  27  28
HETATM   28  C15 UNL     1      29.209  32.010  37.840  1.00  0.00     0.110 C 
BRANCH  28  29
HETATM   29  C21 UNL     1      29.949  32.614  39.003  1.00  0.00     0.139 C 
HETATM   30  O3  UNL     1      29.743  32.432  40.190  1.00  0.00    -0.650 OA
BRANCH  29  31
HETATM   31  O4  UNL     1      30.952  33.416  38.598  1.00  0.00    -0.776 OA
HETATM   32  H29 UNL     1      31.002  34.105  39.293  1.00  0.00     0.167 HD
ENDBRANCH  29  31
ENDBRANCH  28  29
ENDBRANCH  27  28
ENDBRANCH  26  27
ENDBRANCH  25  26
ENDBRANCH  23  24
ENDBRANCH   2  23
TORSDOF 11
