REMARK  3 active torsions:
REMARK  status: ('A' for Active; 'I' for Inactive)
REMARK    1  A    between atoms: C1_1  and  O4_20 
REMARK    2  A    between atoms: C8_8  and  O3_12 
REMARK    3  A    between atoms: O3_12  and  C10_13 
ROOT
HETATM    1  C1  UNL     1      30.371  27.904  34.555  1.00  0.00     0.068 A 
HETATM    2  C2  UNL     1      30.455  26.531  34.783  1.00  0.00     0.037 A 
HETATM    3  C3  UNL     1      30.647  26.065  36.086  1.00  0.00     0.021 A 
HETATM    4  C4  UNL     1      30.753  26.977  37.143  1.00  0.00     0.051 A 
HETATM    5  C5  UNL     1      30.668  28.343  36.902  1.00  0.00     0.091 A 
HETATM    6  C6  UNL     1      30.476  28.813  35.604  1.00  0.00     0.074 A 
HETATM    7  C7  UNL     1      30.956  26.511  38.523  1.00  0.00     0.220 A 
HETATM    8  C8  UNL     1      31.059  27.548  39.599  1.00  0.00     0.149 A 
HETATM    9  C9  UNL     1      30.955  28.823  39.190  1.00  0.00     0.184 A 
HETATM   10  O1  UNL     1      30.766  29.273  37.901  1.00  0.00    -0.319 OA
HETATM   11  O2  UNL     1      31.033  25.310  38.765  1.00  0.00    -0.284 OA
ENDROOT
BRANCH   8  12
HETATM   12  O3  UNL     1      31.246  27.020  40.854  1.00  0.00    -0.305 OA
BRANCH  12  13
HETATM   13  C10 UNL     1      32.228  27.232  41.780  1.00  0.00     0.076 A 
HETATM   14  C11 UNL     1      33.295  26.329  41.631  1.00  0.00     0.038 A 
HETATM   15  C12 UNL     1      34.410  26.361  42.472  1.00  0.00     0.021 A 
HETATM   16  C13 UNL     1      34.470  27.310  43.484  1.00  0.00     0.006 A 
HETATM   17  C14 UNL     1      33.424  28.214  43.649  1.00  0.00     0.021 A 
HETATM   18  I1  UNL     1      36.114  27.381  44.748  1.00  0.00    -0.045 I 
HETATM   19  C15 UNL     1      32.306  28.173  42.799  1.00  0.00     0.038 A 
ENDBRANCH  12  13
ENDBRANCH   8  12
BRANCH   1  20
HETATM   20  O4  UNL     1      30.185  28.403  33.301  1.00  0.00    -0.361 OA
HETATM   21  H9  UNL     1      30.403  27.714  32.651  1.00  0.00     0.217 HD
ENDBRANCH   1  20
TORSDOF 3
