REMARK  10 active torsions:
REMARK  status: ('A' for Active; 'I' for Inactive)
REMARK    1  A    between atoms: C1_2  and  N5_13 
REMARK    2  A    between atoms: C4_6  and  N6_20 
REMARK    3  A    between atoms: N3_7  and  C6_10 
REMARK    4  A    between atoms: N5_13  and  C9_14 
REMARK    5  A    between atoms: C9_14  and  C10_15 
REMARK    6  A    between atoms: C9_14  and  C11_16 
REMARK    7  A    between atoms: C10_15  and  O1_19 
REMARK    8  A    between atoms: N6_20  and  C14_21 
REMARK    9  A    between atoms: C17_24  and  C20_28 
REMARK   10  A    between atoms: C20_28  and  O3_30 
ROOT
HETATM    1  N1  UNL     1      30.595  29.569  38.600  1.00  0.00    -0.198 NA
HETATM    2  C1  UNL     1      30.534  29.765  39.931  1.00  0.00     0.206 A 
HETATM    3  N2  UNL     1      30.688  28.821  40.872  1.00  0.00    -0.198 NA
HETATM    4  C2  UNL     1      30.933  27.612  40.350  1.00  0.00     0.167 A 
HETATM    5  C3  UNL     1      31.024  27.287  39.010  1.00  0.00     0.150 A 
HETATM    6  C4  UNL     1      30.844  28.333  38.090  1.00  0.00     0.164 A 
HETATM    7  N3  UNL     1      31.150  26.434  41.013  1.00  0.00    -0.320 N 
HETATM    8  C5  UNL     1      31.351  25.461  40.066  1.00  0.00     0.212 A 
HETATM    9  N4  UNL     1      31.280  25.941  38.841  1.00  0.00    -0.236 NA
ENDROOT
BRANCH   6  10
HETATM   10  N6  UNL     1      30.905  28.070  36.712  1.00  0.00    -0.339 N 
HETATM   11  H21 UNL     1      31.620  27.377  36.506  1.00  0.00     0.167 HD
BRANCH  10  12
HETATM   12  C14 UNL     1      30.233  28.610  35.609  1.00  0.00     0.035 A 
HETATM   13  C15 UNL     1      29.432  29.756  35.668  1.00  0.00     0.054 A 
HETATM   14  C16 UNL     1      28.751  30.241  34.540  1.00  0.00     0.053 A 
HETATM   15  C17 UNL     1      28.862  29.573  33.318  1.00  0.00     0.059 A 
HETATM   16 CL1  UNL     1      27.764  31.643  34.769  1.00  0.00    -0.083 Cl
HETATM   17  C18 UNL     1      29.655  28.420  33.244  1.00  0.00     0.022 A 
HETATM   18  C19 UNL     1      30.325  27.947  34.377  1.00  0.00     0.030 A 
BRANCH  15  19
HETATM   19  C20 UNL     1      28.189  30.060  32.092  1.00  0.00     0.177 C 
HETATM   20  O2  UNL     1      26.995  30.146  31.879  1.00  0.00    -0.646 OA
BRANCH  19  21
HETATM   21  O3  UNL     1      29.082  30.434  31.156  1.00  0.00    -0.773 OA
HETATM   22  H25 UNL     1      29.139  31.407  31.269  1.00  0.00     0.167 HD
ENDBRANCH  19  21
ENDBRANCH  15  19
ENDBRANCH  10  12
ENDBRANCH   6  10
BRANCH   2  23
HETATM   23  N5  UNL     1      30.282  31.035  40.422  1.00  0.00    -0.254 NA
HETATM   24  H9  UNL     1      30.371  30.991  41.430  1.00  0.00     0.131 HD
BRANCH  23  25
HETATM   25  C9  UNL     1      29.110  31.750  39.899  1.00  0.00     0.090 C 
BRANCH  25  26
HETATM   26  C10 UNL     1      29.491  32.553  38.631  1.00  0.00     0.184 C 
BRANCH  26  27
HETATM   27  O1  UNL     1      30.564  33.462  38.836  1.00  0.00    -0.399 OA
HETATM   28  H20 UNL     1      30.226  34.362  38.693  1.00  0.00     0.209 HD
ENDBRANCH  26  27
ENDBRANCH  25  26
BRANCH  25  29
HETATM   29  C11 UNL     1      27.975  30.698  39.708  1.00  0.00    -0.003 C 
HETATM   30  C12 UNL     1      27.037  30.615  40.916  1.00  0.00     0.011 C 
HETATM   31  C13 UNL     1      27.165  30.885  38.422  1.00  0.00     0.011 C 
ENDBRANCH  25  29
ENDBRANCH  23  25
ENDBRANCH   2  23
BRANCH   7  32
HETATM   32  C6  UNL     1      31.164  26.255  42.458  1.00  0.00     0.084 C 
HETATM   33  C7  UNL     1      32.551  25.855  42.962  1.00  0.00     0.032 C 
HETATM   34  C8  UNL     1      30.098  25.258  42.913  1.00  0.00     0.032 C 
ENDBRANCH   7  32
TORSDOF 10
