REMARK  4 active torsions:
REMARK  status: ('A' for Active; 'I' for Inactive)
REMARK    1  A    between atoms: C1_1  and  O1_7 
REMARK    2  A    between atoms: C2_3  and  C7_9 
REMARK    3  A    between atoms: C8_10  and  C13_15 
REMARK    4  A    between atoms: C19_24  and  N5_27 
ROOT
HETATM    1  C13 UNL     1      30.046  28.030  39.503  1.00  0.00     0.124 C 
HETATM    2  N2  UNL     1      28.659  28.238  39.890  1.00  0.00    -0.348 N 
HETATM    3  C14 UNL     1      28.162  29.498  40.130  1.00  0.00     0.256 C 
HETATM    4  C15 UNL     1      28.950  30.642  39.611  1.00  0.00     0.081 A 
HETATM    5  C16 UNL     1      30.052  30.412  38.797  1.00  0.00     0.058 A 
HETATM    6  C17 UNL     1      30.431  29.013  38.395  1.00  0.00     0.090 C 
HETATM    7  O2  UNL     1      27.110  29.636  40.740  1.00  0.00    -0.268 OA
HETATM    8  C18 UNL     1      28.670  31.971  39.882  1.00  0.00     0.051 A 
HETATM    9  N3  UNL     1      29.428  32.980  39.380  1.00  0.00    -0.223 NA
HETATM   10  C19 UNL     1      30.473  32.656  38.616  1.00  0.00     0.199 A 
HETATM   11  N4  UNL     1      30.810  31.409  38.282  1.00  0.00    -0.222 NA
HETATM   12  C20 UNL     1      27.522  32.407  40.744  1.00  0.00     0.071 C 
HETATM   13  H11 UNL     1      28.191  27.509  40.418  1.00  0.00     0.163 HD
ENDROOT
BRANCH   1  14
HETATM   14  C8  UNL     1      30.295  26.590  39.068  1.00  0.00    -0.022 A 
HETATM   15  C7  UNL     1      31.205  25.746  39.759  1.00  0.00     0.004 A 
HETATM   16  C12 UNL     1      31.410  24.438  39.278  1.00  0.00     0.056 A 
HETATM   17  C11 UNL     1      30.749  23.983  38.144  1.00  0.00     0.117 A 
HETATM   18  C10 UNL     1      29.873  24.803  37.454  1.00  0.00     0.043 A 
HETATM   19  F1  UNL     1      30.968  22.736  37.709  1.00  0.00    -0.206 F 
HETATM   20  C9  UNL     1      29.649  26.101  37.909  1.00  0.00     0.013 A 
BRANCH  15  21
HETATM   21  C2  UNL     1      31.940  26.176  40.958  1.00  0.00     0.070 A 
HETATM   22  N1  UNL     1      33.186  26.656  40.737  1.00  0.00    -0.224 NA
HETATM   23  C1  UNL     1      33.893  27.064  41.813  1.00  0.00     0.164 A 
HETATM   24  C5  UNL     1      33.415  27.014  43.111  1.00  0.00     0.058 A 
HETATM   25  C4  UNL     1      32.134  26.521  43.323  1.00  0.00     0.007 A 
HETATM   26  C3  UNL     1      31.382  26.096  42.233  1.00  0.00     0.032 A 
BRANCH  23  27
HETATM   27  O1  UNL     1      35.173  27.554  41.651  1.00  0.00    -0.339 OA
HETATM   28  C6  UNL     1      36.086  26.582  41.151  1.00  0.00     0.211 C 
ENDBRANCH  23  27
ENDBRANCH  15  21
ENDBRANCH   1  14
BRANCH  10  29
HETATM   29  N5  UNL     1      31.228  33.683  38.098  1.00  0.00    -0.271 NA
HETATM   30  H17 UNL     1      31.617  34.234  38.850  1.00  0.00     0.127 HD
HETATM   31  H18 UNL     1      30.707  34.171  37.383  1.00  0.00     0.127 HD
ENDBRANCH  10  29
TORSDOF 4
