REMARK  4 active torsions:
REMARK  status: ('A' for Active; 'I' for Inactive)
REMARK    1  A    between atoms: N2_6  and  C6_8 
REMARK    2  A    between atoms: C6_8  and  C7_9 
REMARK    3  A    between atoms: C10_12  and  C13_15 
REMARK    4  A    between atoms: C18_21  and  C20_24 
ROOT
HETATM    1  C13 UNL     1      29.912  29.572  40.643  1.00  0.00    -0.007 A 
HETATM    2  C14 UNL     1      29.664  29.668  39.264  1.00  0.00     0.030 A 
HETATM    3  C15 UNL     1      28.644  30.528  38.814  1.00  0.00     0.023 A 
HETATM    4  C16 UNL     1      27.934  31.227  39.784  1.00  0.00     0.138 A 
HETATM    5  N3  UNL     1      28.109  31.189  41.116  1.00  0.00    -0.242 NA
HETATM    6  C17 UNL     1      29.107  30.347  41.487  1.00  0.00     0.131 A 
HETATM    7  C18 UNL     1      28.094  30.901  37.548  1.00  0.00     0.004 A 
HETATM    8  C19 UNL     1      27.073  31.802  37.796  1.00  0.00     0.103 A 
HETATM    9  N4  UNL     1      26.992  31.989  39.153  1.00  0.00    -0.349 N 
HETATM   10  H21 UNL     1      26.348  32.594  39.639  1.00  0.00     0.167 HD
ENDROOT
BRANCH   1  11
HETATM   11  C10 UNL     1      30.967  28.694  41.173  1.00  0.00    -0.025 A 
HETATM   12  C9  UNL     1      31.158  28.543  42.556  1.00  0.00     0.013 A 
HETATM   13  C8  UNL     1      32.161  27.707  43.061  1.00  0.00     0.010 A 
HETATM   14  C7  UNL     1      32.998  26.996  42.194  1.00  0.00    -0.030 A 
HETATM   15  C12 UNL     1      32.818  27.146  40.813  1.00  0.00     0.010 A 
HETATM   16  C11 UNL     1      31.816  27.983  40.311  1.00  0.00     0.013 A 
BRANCH  14  17
HETATM   17  C6  UNL     1      34.094  26.102  42.737  1.00  0.00     0.311 C 
BRANCH  17  18
HETATM   18  N2  UNL     1      34.871  26.726  43.824  1.00  0.00     0.096 N 
HETATM   19  C1  UNL     1      35.167  28.151  43.560  1.00  0.00     0.303 C 
HETATM   20  C2  UNL     1      36.245  28.404  42.477  1.00  0.00     0.302 C 
HETATM   21  N1  UNL     1      37.510  27.668  42.669  1.00  0.00     0.087 N 
HETATM   22  C3  UNL     1      37.223  26.249  42.958  1.00  0.00     0.302 C 
HETATM   23  C5  UNL     1      38.320  28.272  43.726  1.00  0.00     0.310 C 
HETATM   24  C4  UNL     1      36.143  26.005  44.040  1.00  0.00     0.303 C 
ENDBRANCH  17  18
ENDBRANCH  14  17
ENDBRANCH   1  11
BRANCH   7  25
HETATM   25  C20 UNL     1      28.474  30.484  36.207  1.00  0.00    -0.023 A 
HETATM   26  C21 UNL     1      29.431  29.480  36.020  1.00  0.00     0.014 A 
HETATM   27  C22 UNL     1      29.818  29.068  34.740  1.00  0.00     0.031 A 
HETATM   28  C23 UNL     1      29.211  29.698  33.647  1.00  0.00     0.042 A 
HETATM   29  C24 UNL     1      28.254  30.700  33.794  1.00  0.00    -0.007 A 
HETATM   30  N5  UNL     1      29.391  29.503  32.297  1.00  0.00    -0.365 N 
HETATM   31  C25 UNL     1      27.879  31.099  35.092  1.00  0.00     0.026 A 
HETATM   32  C27 UNL     1      27.862  31.100  32.486  1.00  0.00     0.030 A 
HETATM   33  C26 UNL     1      28.579  30.346  31.584  1.00  0.00     0.089 A 
HETATM   34  H25 UNL     1      30.030  28.832  31.894  1.00  0.00     0.165 HD
ENDBRANCH   7  25
TORSDOF 4
