REMARK  12 active torsions:
REMARK  status: ('A' for Active; 'I' for Inactive)
REMARK    1  A    between atoms: C3_3  and  C6_7 
REMARK    2  A    between atoms: C6_7  and  C7_8 
REMARK    3  A    between atoms: C7_8  and  O2_9 
REMARK    4  A    between atoms: O2_9  and  C8_10 
REMARK    5  A    between atoms: C10_12  and  O3_14 
REMARK    6  A    between atoms: O3_14  and  C12_15 
REMARK    7  A    between atoms: C15_18  and  C18_21 
REMARK    8  A    between atoms: C20_25  and  C21_26 
REMARK    9  A    between atoms: C21_26  and  N3_27 
REMARK   10  A    between atoms: N3_27  and  C23_29 
REMARK   11  A    between atoms: C23_29  and  C24_30 
REMARK   12  A    between atoms: C24_30  and  N4_31 
ROOT
HETATM    1  C12 UNL     1      29.586  29.695  40.999  1.00  0.00     0.069 A 
HETATM    2  C13 UNL     1      28.861  30.841  41.321  1.00  0.00     0.037 A 
HETATM    3  C14 UNL     1      27.590  31.040  40.769  1.00  0.00     0.016 A 
HETATM    4  C15 UNL     1      27.029  30.096  39.900  1.00  0.00    -0.005 A 
HETATM    5  C16 UNL     1      27.768  28.952  39.574  1.00  0.00     0.016 A 
HETATM    6  C17 UNL     1      29.036  28.753  40.127  1.00  0.00     0.037 A 
ENDROOT
BRANCH   1   7
HETATM    7  O3  UNL     1      30.839  29.391  41.467  1.00  0.00    -0.346 OA
BRANCH   7   8
HETATM    8  C10 UNL     1      31.102  28.062  41.970  1.00  0.00     0.133 C 
HETATM    9  C9  UNL     1      31.526  26.996  40.932  1.00  0.00     0.064 C 
HETATM   10  C8  UNL     1      32.997  27.347  41.244  1.00  0.00     0.126 C 
HETATM   11  C11 UNL     1      32.504  27.890  42.602  1.00  0.00     0.064 C 
BRANCH  10  12
HETATM   12  O2  UNL     1      33.903  26.224  41.294  1.00  0.00    -0.386 OA
BRANCH  12  13
HETATM   13  C7  UNL     1      35.256  26.486  40.912  1.00  0.00     0.168 C 
BRANCH  13  14
HETATM   14  C6  UNL     1      36.197  25.601  41.726  1.00  0.00     0.031 C 
BRANCH  14  15
HETATM   15  C3  UNL     1      36.820  26.252  42.971  1.00  0.00    -0.009 C 
HETATM   16  C2  UNL     1      37.530  27.578  42.662  1.00  0.00     0.031 C 
HETATM   17  C1  UNL     1      38.107  28.187  43.936  1.00  0.00     0.168 C 
HETATM   18  O1  UNL     1      37.087  28.360  44.920  1.00  0.00    -0.391 OA
HETATM   19  C5  UNL     1      36.491  27.123  45.306  1.00  0.00     0.168 C 
HETATM   20  C4  UNL     1      35.814  26.458  44.113  1.00  0.00     0.031 C 
ENDBRANCH  14  15
ENDBRANCH  13  14
ENDBRANCH  12  13
ENDBRANCH  10  12
ENDBRANCH   7   8
ENDBRANCH   1   7
BRANCH   4  21
HETATM   21  C18 UNL     1      25.705  30.324  39.321  1.00  0.00     0.096 A 
HETATM   22  N1  UNL     1      24.610  30.223  40.091  1.00  0.00    -0.174 NA
HETATM   23  N2  UNL     1      23.600  30.543  39.279  1.00  0.00    -0.288 N 
HETATM   24  C19 UNL     1      23.990  30.817  38.005  1.00  0.00     0.120 A 
HETATM   25  H24 UNL     1      22.660  30.555  39.663  1.00  0.00     0.188 HD
HETATM   26  C20 UNL     1      25.363  30.659  37.963  1.00  0.00     0.007 A 
BRANCH  26  27
HETATM   27  C21 UNL     1      26.331  30.814  36.826  1.00  0.00     0.159 C 
BRANCH  27  28
HETATM   28  N3  UNL     1      27.335  31.877  36.947  1.00  0.00    -0.411 N 
HETATM   29  C22 UNL     1      26.886  33.189  36.510  1.00  0.00     0.143 C 
BRANCH  28  30
HETATM   30  C23 UNL     1      28.681  31.500  36.501  1.00  0.00     0.146 C 
BRANCH  30  31
HETATM   31  C24 UNL     1      29.748  31.345  37.620  1.00  0.00     0.288 C 
BRANCH  31  32
HETATM   32  N4  UNL     1      30.831  30.420  37.268  1.00  0.00     0.080 N 
HETATM   33  C25 UNL     1      30.345  29.307  36.467  1.00  0.00     0.306 C 
HETATM   34  H35 UNL     1      31.283  30.082  38.118  1.00  0.00     0.315 HD
ENDBRANCH  31  32
ENDBRANCH  30  31
ENDBRANCH  28  30
ENDBRANCH  27  28
ENDBRANCH  26  27
ENDBRANCH   4  21
TORSDOF 12
