REMARK  5 active torsions:
REMARK  status: ('A' for Active; 'I' for Inactive)
REMARK    1  A    between atoms: C1_1  and  C7_9 
REMARK    2  A    between atoms: C7_9  and  N1_10 
REMARK    3  A    between atoms: C11_14  and  C16_21 
REMARK    4  A    between atoms: C16_21  and  C17_22 
REMARK    5  A    between atoms: C17_22  and  O3_24 
ROOT
HETATM    1  N1  UNL     1      30.686  27.455  40.395  1.00  0.00    -0.229 N 
HETATM    2  C8  UNL     1      30.826  26.644  39.275  1.00  0.00     0.275 A 
HETATM    3  C9  UNL     1      30.764  27.316  37.964  1.00  0.00     0.046 A 
HETATM    4  C10 UNL     1      30.560  28.691  37.903  1.00  0.00     0.006 A 
HETATM    5  C11 UNL     1      30.410  29.406  39.192  1.00  0.00     0.076 A 
HETATM    6  N2  UNL     1      30.471  28.810  40.343  1.00  0.00    -0.172 NA
HETATM    7  O1  UNL     1      30.989  25.426  39.319  1.00  0.00    -0.266 OA
HETATM    8  C12 UNL     1      30.906  26.569  36.786  1.00  0.00     0.018 A 
HETATM    9  C13 UNL     1      30.846  27.203  35.547  1.00  0.00     0.001 A 
HETATM   10  C14 UNL     1      30.644  28.581  35.482  1.00  0.00     0.001 A 
HETATM   11  C15 UNL     1      30.501  29.326  36.656  1.00  0.00     0.014 A 
ENDROOT
BRANCH   1  12
HETATM   12  C7  UNL     1      30.710  26.859  41.729  1.00  0.00     0.196 C 
BRANCH  12  13
HETATM   13  C1  UNL     1      32.036  27.054  42.418  1.00  0.00     0.000 A 
HETATM   14  C2  UNL     1      32.286  28.200  43.188  1.00  0.00     0.013 A 
HETATM   15  C3  UNL     1      33.526  28.382  43.805  1.00  0.00     0.020 A 
HETATM   16  C4  UNL     1      34.524  27.419  43.653  1.00  0.00     0.013 A 
HETATM   17  C5  UNL     1      34.294  26.278  42.892  1.00  0.00     0.062 A 
HETATM   18 BR1  UNL     1      36.203  27.669  44.487  1.00  0.00    -0.051 Br
HETATM   19  C6  UNL     1      33.055  26.107  42.281  1.00  0.00     0.125 A 
HETATM   20  F1  UNL     1      32.847  24.997  41.558  1.00  0.00    -0.205 F 
ENDBRANCH  12  13
ENDBRANCH   1  12
BRANCH   5  21
HETATM   21  C16 UNL     1      30.166  30.900  39.210  1.00  0.00     0.171 C 
BRANCH  21  22
HETATM   22  C17 UNL     1      29.086  31.315  40.162  1.00  0.00     0.145 C 
HETATM   23  O2  UNL     1      29.082  32.286  40.900  1.00  0.00    -0.650 OA
BRANCH  22  24
HETATM   24  O3  UNL     1      28.013  30.501  40.099  1.00  0.00    -0.776 OA
HETATM   25  H12 UNL     1      27.424  30.926  39.440  1.00  0.00     0.167 HD
ENDBRANCH  22  24
ENDBRANCH  21  22
ENDBRANCH   5  21
TORSDOF 5
