REMARK  4 active torsions:
REMARK  status: ('A' for Active; 'I' for Inactive)
REMARK    1  A    between atoms: C10_10  and  C22_27 
REMARK    2  A    between atoms: C14_15  and  C16_17 
REMARK    3  A    between atoms: C22_27  and  C23_28 
REMARK    4  A    between atoms: C23_28  and  O6_29 
ROOT
HETATM    1  C1  UNL     1      30.653  27.393  40.905  1.00  0.00     0.056 C 
HETATM    2  C2  UNL     1      29.333  27.155  40.108  1.00  0.00     0.033 C 
HETATM    3  C3  UNL     1      29.412  25.957  39.133  1.00  0.00     0.158 C 
HETATM    4  C4  UNL     1      30.474  24.944  39.275  1.00  0.00     0.048 C 
HETATM    5  C5  UNL     1      31.426  25.046  40.204  1.00  0.00    -0.003 C 
HETATM    6  C6  UNL     1      31.562  26.184  41.173  1.00  0.00     0.069 C 
HETATM    7  C7  UNL     1      31.589  28.455  40.345  1.00  0.00     0.168 C 
HETATM    8  C8  UNL     1      31.416  28.764  38.867  1.00  0.00     0.165 C 
HETATM    9  C9  UNL     1      29.984  29.268  38.545  1.00  0.00     0.016 C 
HETATM   10  C10 UNL     1      28.843  28.443  39.286  1.00  0.00     0.026 C 
HETATM   11  O1  UNL     1      31.697  27.612  38.038  1.00  0.00    -0.372 OA
HETATM   12  C11 UNL     1      30.878  27.710  36.880  1.00  0.00     0.153 C 
HETATM   13  C12 UNL     1      30.044  28.928  37.082  1.00  0.00    -0.037 C 
HETATM   14  C13 UNL     1      31.569  28.020  35.565  1.00  0.00     0.050 C 
HETATM   15  C14 UNL     1      30.508  28.829  34.787  1.00  0.00     0.052 C 
HETATM   16  C15 UNL     1      29.761  29.528  35.915  1.00  0.00    -0.069 C 
HETATM   17  C20 UNL     1      28.985  30.764  35.629  1.00  0.00     0.044 C 
HETATM   18  C21 UNL     1      32.966  26.752  41.018  1.00  0.00     0.272 C 
HETATM   19  O3  UNL     1      32.930  28.047  40.619  1.00  0.00    -0.312 OA
HETATM   20  O4  UNL     1      34.007  26.147  41.238  1.00  0.00    -0.264 OA
HETATM   21  O5  UNL     1      28.554  25.754  38.272  1.00  0.00    -0.292 OA
HETATM   22  C24 UNL     1      28.249  26.658  41.107  1.00  0.00     0.025 C 
HETATM   23  C25 UNL     1      29.958  30.792  38.779  1.00  0.00     0.023 C 
HETATM   24  C27 UNL     1      31.411  25.662  42.609  1.00  0.00     0.031 C 
ENDROOT
BRANCH  10  25
HETATM   25  C22 UNL     1      27.744  29.304  39.972  1.00  0.00     0.118 C 
BRANCH  25  26
HETATM   26  C23 UNL     1      27.005  30.301  39.111  1.00  0.00     0.258 C 
HETATM   27  O7  UNL     1      26.642  30.105  37.961  1.00  0.00    -0.265 OA
BRANCH  26  28
HETATM   28  O6  UNL     1      26.813  31.453  39.808  1.00  0.00    -0.326 OA
HETATM   29  C26 UNL     1      27.107  31.349  41.202  1.00  0.00     0.213 C 
ENDBRANCH  26  28
ENDBRANCH  25  26
ENDBRANCH  10  25
BRANCH  15  30
HETATM   30  C16 UNL     1      29.627  27.990  33.913  1.00  0.00    -0.026 A 
HETATM   31  C17 UNL     1      29.608  26.565  33.851  1.00  0.00     0.034 A 
HETATM   32  C18 UNL     1      28.652  26.222  32.925  1.00  0.00     0.142 A 
HETATM   33  O2  UNL     1      28.075  27.334  32.408  1.00  0.00    -0.334 OA
HETATM   34  C19 UNL     1      28.665  28.399  33.007  1.00  0.00     0.149 A 
ENDBRANCH  15  30
TORSDOF 4
