REMARK  5 active torsions:
REMARK  status: ('A' for Active; 'I' for Inactive)
REMARK    1  A    between atoms: C1_1  and  C2_2 
REMARK    2  A    between atoms: C1_1  and  O2_5 
REMARK       I    between atoms: C2_2  and  N1_4 
REMARK    3  A    between atoms: O2_5  and  C3_6 
REMARK    4  A    between atoms: C12_18  and  C14_20 
REMARK    5  A    between atoms: N6_24  and  C16_25 
ROOT
HETATM    1  C3  UNL     1      31.974  27.752  40.949  1.00  0.00     0.072 A 
HETATM    2  C4  UNL     1      31.921  27.367  39.615  1.00  0.00     0.038 A 
HETATM    3  C5  UNL     1      31.114  28.059  38.709  1.00  0.00     0.021 A 
HETATM    4  C6  UNL     1      30.325  29.158  39.102  1.00  0.00     0.043 A 
HETATM    5  C7  UNL     1      30.364  29.518  40.458  1.00  0.00     0.085 A 
HETATM    6  C8  UNL     1      31.200  28.833  41.363  1.00  0.00     0.074 A 
HETATM    7  C9  UNL     1      29.567  29.843  38.037  1.00  0.00     0.143 A 
HETATM    8  N2  UNL     1      28.734  30.932  38.158  1.00  0.00    -0.337 N 
HETATM    9  C10 UNL     1      28.377  31.642  39.366  1.00  0.00     0.156 C 
HETATM   10  C11 UNL     1      28.355  30.739  40.580  1.00  0.00     0.196 C 
HETATM   11  O3  UNL     1      29.685  30.548  41.053  1.00  0.00    -0.348 OA
HETATM   12  N3  UNL     1      29.599  29.477  36.764  1.00  0.00    -0.225 NA
HETATM   13  C12 UNL     1      28.800  30.341  36.055  1.00  0.00     0.122 A 
HETATM   14  C13 UNL     1      28.257  31.264  36.911  1.00  0.00     0.128 A 
ENDROOT
BRANCH   1  15
HETATM   15  O2  UNL     1      32.819  27.009  41.723  1.00  0.00    -0.337 OA
BRANCH  15  16
HETATM   16  C1  UNL     1      34.108  27.542  42.035  1.00  0.00     0.216 C 
HETATM   17  C19 UNL     1      34.177  27.678  43.553  1.00  0.00     0.050 C 
BRANCH  16  18
HETATM   18  C2  UNL     1      35.246  26.623  41.570  1.00  0.00     0.244 C 
HETATM   19  O1  UNL     1      35.811  26.744  40.488  1.00  0.00    -0.271 OA
HETATM   20  N1  UNL     1      35.638  25.668  42.468  1.00  0.00    -0.368 N 
HETATM   21  H2  UNL     1      34.975  25.369  43.174  1.00  0.00     0.159 HD
HETATM   22  H3  UNL     1      36.298  24.979  42.128  1.00  0.00     0.159 HD
ENDBRANCH  16  18
ENDBRANCH  15  16
ENDBRANCH   1  15
BRANCH  13  23
HETATM   23  C14 UNL     1      28.624  30.213  34.502  1.00  0.00     0.178 A 
HETATM   24  N4  UNL     1      28.174  31.209  33.758  1.00  0.00    -0.219 NA
HETATM   25  C15 UNL     1      28.106  30.682  32.509  1.00  0.00     0.257 A 
HETATM   26  N5  UNL     1      28.499  29.414  32.405  1.00  0.00    -0.164 NA
HETATM   27  N6  UNL     1      28.864  29.137  33.680  1.00  0.00    -0.245 N 
BRANCH  27  28
HETATM   28  C16 UNL     1      29.422  27.832  33.996  1.00  0.00     0.104 C 
HETATM   29  C17 UNL     1      30.943  27.860  34.191  1.00  0.00     0.034 C 
HETATM   30  C18 UNL     1      29.038  26.806  32.931  1.00  0.00     0.034 C 
ENDBRANCH  27  28
ENDBRANCH  13  23
TORSDOF 5
