REMARK  14 active torsions:
REMARK  status: ('A' for Active; 'I' for Inactive)
REMARK    1  A    between atoms: C2_2  and  C6_6 
REMARK    2  A    between atoms: C3_3  and  C14_14 
REMARK    3  A    between atoms: C7_7  and  C8_8 
REMARK    4  A    between atoms: C8_8  and  C9_9 
REMARK    5  A    between atoms: C8_8  and  O2_21 
REMARK    6  A    between atoms: C9_9  and  C10_10 
REMARK    7  A    between atoms: C10_10  and  C11_11 
REMARK    8  A    between atoms: C11_11  and  C12_12 
REMARK    9  A    between atoms: C14_14  and  C15_15 
REMARK   10  A    between atoms: C16_16  and  C17_17 
REMARK   11  A    between atoms: C17_17  and  C18_18 
REMARK   12  A    between atoms: C18_18  and  C19_19 
REMARK   13  A    between atoms: C19_19  and  C20_22 
REMARK   14  A    between atoms: C20_22  and  O4_24 
ROOT
HETATM    1  C1  UNL     1      31.527  25.648  40.951  1.00  0.00     0.157 A 
HETATM    2  C2  UNL     1      32.159  27.029  41.013  1.00  0.00     0.090 A 
HETATM    3  C3  UNL     1      31.577  27.594  42.334  1.00  0.00     0.027 A 
HETATM    4  C4  UNL     1      30.774  26.451  42.906  1.00  0.00    -0.017 A 
HETATM    5  C5  UNL     1      30.722  25.358  42.143  1.00  0.00     0.047 A 
HETATM    6  O1  UNL     1      31.654  24.841  40.040  1.00  0.00    -0.293 OA
ENDROOT
BRANCH   2   7
HETATM    7  C6  UNL     1      33.656  26.880  40.858  1.00  0.00    -0.015 C 
HETATM    8  C7  UNL     1      34.500  26.107  41.563  1.00  0.00     0.001 C 
BRANCH   8   9
HETATM    9  C8  UNL     1      35.976  26.020  41.295  1.00  0.00     0.140 C 
BRANCH   9  10
HETATM   10  C9  UNL     1      36.793  25.703  42.553  1.00  0.00     0.036 C 
BRANCH  10  11
HETATM   11  C10 UNL     1      35.924  25.468  43.791  1.00  0.00     0.003 C 
BRANCH  11  12
HETATM   12  C11 UNL     1      36.244  26.482  44.892  1.00  0.00    -0.000 C 
BRANCH  12  13
HETATM   13  C12 UNL     1      36.103  27.917  44.385  1.00  0.00    -0.005 C 
HETATM   14  C13 UNL     1      34.645  28.345  44.328  1.00  0.00     0.005 C 
ENDBRANCH  12  13
ENDBRANCH  11  12
ENDBRANCH  10  11
ENDBRANCH   9  10
BRANCH   9  15
HETATM   15  O2  UNL     1      36.384  27.297  40.813  1.00  0.00    -0.392 OA
HETATM   16  H29 UNL     1      37.317  27.212  40.555  1.00  0.00     0.210 HD
ENDBRANCH   9  15
ENDBRANCH   8   9
ENDBRANCH   2   7
BRANCH   3  17
HETATM   17  C14 UNL     1      30.701  28.837  42.063  1.00  0.00     0.036 C 
BRANCH  17  18
HETATM   18  C15 UNL     1      30.620  29.183  40.600  1.00  0.00    -0.030 C 
HETATM   19  C16 UNL     1      29.517  29.265  39.837  1.00  0.00    -0.031 C 
BRANCH  19  20
HETATM   20  C17 UNL     1      28.095  29.007  40.247  1.00  0.00     0.027 C 
BRANCH  20  21
HETATM   21  C18 UNL     1      27.231  30.273  40.297  1.00  0.00     0.014 C 
BRANCH  21  22
HETATM   22  C19 UNL     1      27.577  31.248  41.419  1.00  0.00     0.110 C 
BRANCH  22  23
HETATM   23  C20 UNL     1      28.135  32.540  40.894  1.00  0.00     0.139 C 
HETATM   24  O3  UNL     1      29.275  32.724  40.503  1.00  0.00    -0.650 OA
BRANCH  23  25
HETATM   25  O4  UNL     1      27.224  33.529  40.868  1.00  0.00    -0.776 OA
HETATM   26  H30 UNL     1      27.721  34.300  40.520  1.00  0.00     0.167 HD
ENDBRANCH  23  25
ENDBRANCH  22  23
ENDBRANCH  21  22
ENDBRANCH  20  21
ENDBRANCH  19  20
ENDBRANCH  17  18
ENDBRANCH   3  17
TORSDOF 14
