REMARK  7 active torsions:
REMARK  status: ('A' for Active; 'I' for Inactive)
REMARK    1  A    between atoms: C2_2  and  O2_15 
REMARK    2  A    between atoms: C5_5  and  C7_7 
REMARK    3  A    between atoms: C7_7  and  C8_8 
REMARK    4  A    between atoms: C8_8  and  C9_10 
REMARK    5  A    between atoms: O2_15  and  C12_16 
REMARK    6  A    between atoms: C12_16  and  C13_17 
REMARK    7  A    between atoms: C13_17  and  O3_18 
ROOT
HETATM    1  C1  UNL     1      30.806  26.118  38.933  1.00  0.00     0.090 A 
HETATM    2  C2  UNL     1      30.660  27.426  38.418  1.00  0.00     0.092 A 
HETATM    3  C3  UNL     1      30.974  28.522  39.227  1.00  0.00     0.039 A 
HETATM    4  C4  UNL     1      31.419  28.323  40.535  1.00  0.00     0.020 A 
HETATM    5  C5  UNL     1      31.542  27.027  41.049  1.00  0.00     0.038 A 
HETATM    6  C6  UNL     1      31.260  25.912  40.249  1.00  0.00     0.072 A 
HETATM    7 CL1  UNL     1      31.501  24.308  40.868  1.00  0.00    -0.081 Cl
HETATM    8 CL2  UNL     1      30.414  24.765  37.909  1.00  0.00    -0.080 Cl
ENDROOT
BRANCH   2   9
HETATM    9  O2  UNL     1      30.206  27.532  37.128  1.00  0.00    -0.339 OA
BRANCH   9  10
HETATM   10  C12 UNL     1      30.984  28.275  36.198  1.00  0.00     0.285 C 
BRANCH  10  11
HETATM   11  C13 UNL     1      31.641  27.355  35.188  1.00  0.00     0.164 C 
HETATM   12  O4  UNL     1      31.198  26.280  34.810  1.00  0.00    -0.648 OA
BRANCH  11  13
HETATM   13  O3  UNL     1      32.776  27.847  34.653  1.00  0.00    -0.775 OA
HETATM   14  H12 UNL     1      33.070  27.165  34.015  1.00  0.00     0.167 HD
ENDBRANCH  11  13
ENDBRANCH  10  11
ENDBRANCH   9  10
ENDBRANCH   2   9
BRANCH   5  15
HETATM   15  C7  UNL     1      32.028  26.911  42.435  1.00  0.00     0.189 C 
HETATM   16  O1  UNL     1      31.217  26.621  43.311  1.00  0.00    -0.287 OA
BRANCH  15  17
HETATM   17  C8  UNL     1      33.498  27.066  42.704  1.00  0.00    -0.017 C 
HETATM   18  C10 UNL     1      33.837  28.127  43.459  1.00  0.00     0.023 C 
BRANCH  17  19
HETATM   19  C9  UNL     1      34.448  26.015  42.182  1.00  0.00     0.037 C 
HETATM   20  C11 UNL     1      35.395  26.449  41.067  1.00  0.00     0.010 C 
ENDBRANCH  17  19
ENDBRANCH  15  17
ENDBRANCH   5  15
TORSDOF 7
