REMARK  6 active torsions:
REMARK  status: ('A' for Active; 'I' for Inactive)
REMARK    1  A    between atoms: C1_1  and  O1_7 
REMARK    2  A    between atoms: C3_3  and  O2_8 
REMARK    3  A    between atoms: C8_10  and  O4_13 
REMARK    4  A    between atoms: C12_16  and  O7_23 
REMARK    5  A    between atoms: C13_17  and  O6_22 
REMARK    6  A    between atoms: C14_18  and  O5_20 
ROOT
HETATM    1  C1  UNL     1      30.126  29.805  40.781  1.00  0.00     0.071 A 
HETATM    2  C2  UNL     1      29.125  30.475  41.474  1.00  0.00     0.074 A 
HETATM    3  C3  UNL     1      28.054  31.010  40.758  1.00  0.00     0.081 A 
HETATM    4  C4  UNL     1      27.968  30.890  39.356  1.00  0.00     0.034 A 
HETATM    5  C5  UNL     1      28.997  30.199  38.697  1.00  0.00     0.092 A 
HETATM    6  C6  UNL     1      30.067  29.661  39.401  1.00  0.00     0.074 A 
HETATM    7  C7  UNL     1      26.922  31.427  38.595  1.00  0.00     0.056 C 
HETATM    8  C8  UNL     1      26.938  31.346  37.208  1.00  0.00     0.101 A 
HETATM    9  C9  UNL     1      28.006  30.718  36.545  1.00  0.00     0.119 A 
HETATM   10  O3  UNL     1      28.961  29.969  37.294  1.00  0.00    -0.306 OA
HETATM   11  C10 UNL     1      28.213  30.676  35.091  1.00  0.00     0.006 A 
HETATM   12  C11 UNL     1      28.753  29.508  34.508  1.00  0.00     0.054 A 
HETATM   13  C12 UNL     1      28.963  29.411  33.131  1.00  0.00     0.105 A 
HETATM   14  C13 UNL     1      28.637  30.508  32.329  1.00  0.00     0.133 A 
HETATM   15  C14 UNL     1      28.127  31.693  32.873  1.00  0.00     0.105 A 
HETATM   16  C15 UNL     1      27.923  31.773  34.251  1.00  0.00     0.054 A 
HETATM   17 CL1  UNL     1      28.478  30.642  36.213  1.00  0.00     0.000 Cl
ENDROOT
BRANCH   1  18
HETATM   18  O1  UNL     1      31.196  29.259  41.417  1.00  0.00    -0.361 OA
HETATM   19  H3  UNL     1      30.962  28.415  41.844  1.00  0.00     0.217 HD
ENDBRANCH   1  18
BRANCH   3  20
HETATM   20  O2  UNL     1      27.058  31.678  41.414  1.00  0.00    -0.360 OA
HETATM   21  H4  UNL     1      26.484  32.158  40.787  1.00  0.00     0.217 HD
ENDBRANCH   3  20
BRANCH   8  22
HETATM   22  O4  UNL     1      25.871  31.940  36.582  1.00  0.00    -0.358 OA
HETATM   23  H6  UNL     1      26.124  32.372  35.742  1.00  0.00     0.217 HD
ENDBRANCH   8  22
BRANCH  13  24
HETATM   24  O7  UNL     1      29.462  28.315  32.486  1.00  0.00    -0.353 OA
HETATM   25  C17 UNL     1      28.988  27.033  32.871  1.00  0.00     0.210 C 
ENDBRANCH  13  24
BRANCH  15  26
HETATM   26  O5  UNL     1      27.872  32.683  31.962  1.00  0.00    -0.353 OA
HETATM   27  C16 UNL     1      27.957  34.033  32.407  1.00  0.00     0.210 C 
ENDBRANCH  15  26
BRANCH  14  28
HETATM   28  O6  UNL     1      28.829  30.430  30.972  1.00  0.00    -0.356 OA
HETATM   29  H12 UNL     1      29.771  30.212  30.837  1.00  0.00     0.218 HD
ENDBRANCH  14  28
TORSDOF 6
