REMARK  4 active torsions:
REMARK  status: ('A' for Active; 'I' for Inactive)
REMARK    1  A    between atoms: C3_5  and  S1_7 
REMARK    2  A    between atoms: S1_7  and  C4_8 
REMARK    3  A    between atoms: C4_8  and  C5_9 
REMARK    4  A    between atoms: C4_8  and  C6_12 
REMARK       I    between atoms: C5_9  and  N4_11 
ROOT
HETATM    1  C4  UNL     1      27.112  30.476  37.453  1.00  0.00     0.148 C 
ENDROOT
BRANCH   1   2
HETATM    2  S1  UNL     1      27.010  31.026  39.207  1.00  0.00    -0.074 SA
BRANCH   2   3
HETATM    3  C3  UNL     1      28.364  30.136  39.948  1.00  0.00     0.212 A 
HETATM    4  N2  UNL     1      29.338  30.856  40.571  1.00  0.00    -0.122 NA
HETATM    5  N1  UNL     1      30.365  30.251  41.178  1.00  0.00    -0.143 NA
HETATM    6  C2  UNL     1      30.363  28.896  41.139  1.00  0.00     0.137 A 
HETATM    7  C1  UNL     1      29.331  28.226  40.507  1.00  0.00     0.162 A 
HETATM    8  C21 UNL     1      31.261  27.927  41.658  1.00  0.00     0.025 A 
HETATM    9  N3  UNL     1      28.274  28.788  39.899  1.00  0.00    -0.201 NA
HETATM   10  N5  UNL     1      29.577  26.888  40.608  1.00  0.00    -0.338 N 
HETATM   11  C20 UNL     1      30.746  26.670  41.310  1.00  0.00     0.046 A 
HETATM   12  H15 UNL     1      28.983  26.174  40.216  1.00  0.00     0.167 HD
HETATM   13  C22 UNL     1      31.379  25.473  41.659  1.00  0.00     0.030 A 
HETATM   14  C23 UNL     1      32.570  25.560  42.386  1.00  0.00     0.002 A 
HETATM   15  C24 UNL     1      33.106  26.796  42.748  1.00  0.00     0.001 A 
HETATM   16  C25 UNL     1      32.464  27.986  42.391  1.00  0.00     0.016 A 
ENDBRANCH   2   3
ENDBRANCH   1   2
BRANCH   1  17
HETATM   17  C5  UNL     1      28.247  31.195  36.685  1.00  0.00     0.243 C 
HETATM   18  O1  UNL     1      28.701  32.301  36.991  1.00  0.00    -0.271 OA
HETATM   19  N4  UNL     1      28.682  30.478  35.559  1.00  0.00    -0.279 N 
HETATM   20  C8  UNL     1      28.450  31.010  34.239  1.00  0.00     0.059 A 
HETATM   21  C11 UNL     1      29.533  29.330  35.742  1.00  0.00     0.059 A 
HETATM   22  C9  UNL     1      28.708  30.285  33.063  1.00  0.00     0.033 A 
HETATM   23  C12 UNL     1      27.889  32.299  34.088  1.00  0.00     0.031 A 
HETATM   24  S2  UNL     1      29.271  28.607  33.052  1.00  0.00    -0.086 SA
HETATM   25  C15 UNL     1      28.446  30.851  31.801  1.00  0.00     0.021 A 
HETATM   26  C10 UNL     1      29.867  28.443  34.709  1.00  0.00     0.033 A 
HETATM   27  C16 UNL     1      30.695  27.333  34.962  1.00  0.00     0.021 A 
HETATM   28  C17 UNL     1      31.215  27.097  36.232  1.00  0.00     0.002 A 
HETATM   29  C18 UNL     1      30.918  27.977  37.261  1.00  0.00     0.002 A 
HETATM   30  C19 UNL     1      30.093  29.078  37.017  1.00  0.00     0.031 A 
HETATM   31  C14 UNL     1      27.916  32.133  31.684  1.00  0.00     0.002 A 
HETATM   32  C13 UNL     1      27.632  32.856  32.831  1.00  0.00     0.002 A 
ENDBRANCH   1  17
BRANCH   1  33
HETATM   33  C6  UNL     1      25.797  30.493  36.652  1.00  0.00     0.021 C 
HETATM   34  C7  UNL     1      24.563  30.874  37.457  1.00  0.00     0.006 C 
ENDBRANCH   1  33
TORSDOF 4
