REMARK  4 active torsions:
REMARK  status: ('A' for Active; 'I' for Inactive)
REMARK    1  A    between atoms: C4_4  and  C7_8 
REMARK    2  A    between atoms: C10_11  and  N1_14 
REMARK    3  A    between atoms: C11_12  and  N2_15 
REMARK       I    between atoms: N2_15  and  C13_16 
REMARK    4  A    between atoms: C13_16  and  C14_17 
ROOT
HETATM    1  C7  UNL     1      33.052  26.557  41.713  1.00  0.00    -0.024 A 
HETATM    2  C8  UNL     1      32.630  25.279  41.315  1.00  0.00     0.014 A 
HETATM    3  C9  UNL     1      31.673  25.112  40.310  1.00  0.00     0.026 A 
HETATM    4  C10 UNL     1      31.141  26.224  39.657  1.00  0.00     0.033 A 
HETATM    5  C11 UNL     1      31.516  27.517  40.076  1.00  0.00     0.056 A 
HETATM    6  C12 UNL     1      32.475  27.673  41.080  1.00  0.00     0.043 A 
ENDROOT
BRANCH   5   7
HETATM    7  N2  UNL     1      30.890  28.584  39.399  1.00  0.00    -0.325 N 
HETATM    8  C13 UNL     1      30.342  29.734  39.932  1.00  0.00     0.226 C 
HETATM    9  O1  UNL     1      30.239  29.991  41.127  1.00  0.00    -0.273 OA
HETATM   10  H10 UNL     1      30.845  28.434  38.395  1.00  0.00     0.169 HD
BRANCH   8  11
HETATM   11  C14 UNL     1      29.821  30.685  38.852  1.00  0.00     0.082 C 
HETATM   12  C15 UNL     1      28.638  31.513  39.366  1.00  0.00     0.040 C 
HETATM   13  C16 UNL     1      28.047  32.361  38.248  1.00  0.00     0.168 C 
HETATM   14  O2  UNL     1      27.673  31.552  37.137  1.00  0.00    -0.391 OA
HETATM   15  C17 UNL     1      28.784  30.861  36.570  1.00  0.00     0.168 C 
HETATM   16  C18 UNL     1      29.407  29.920  37.589  1.00  0.00     0.040 C 
ENDBRANCH   8  11
ENDBRANCH   5   7
BRANCH   4  17
HETATM   17  N1  UNL     1      30.055  26.068  38.751  1.00  0.00    -0.301 NA
HETATM   18  H8  UNL     1      29.434  25.342  39.112  1.00  0.00     0.124 HD
HETATM   19  H9  UNL     1      30.391  25.771  37.836  1.00  0.00     0.124 HD
ENDBRANCH   4  17
BRANCH   1  20
HETATM   20  C4  UNL     1      34.063  26.726  42.774  1.00  0.00    -0.026 A 
HETATM   21  C3  UNL     1      34.128  27.909  43.533  1.00  0.00     0.015 A 
HETATM   22  C2  UNL     1      35.083  28.070  44.541  1.00  0.00     0.043 A 
HETATM   23  C1  UNL     1      35.983  27.045  44.797  1.00  0.00     0.116 A 
HETATM   24  C6  UNL     1      35.949  25.866  44.065  1.00  0.00     0.043 A 
HETATM   25  F1  UNL     1      36.899  27.197  45.763  1.00  0.00    -0.206 F 
HETATM   26  C5  UNL     1      34.993  25.708  43.058  1.00  0.00     0.015 A 
ENDBRANCH   1  20
TORSDOF 4
