REMARK  3 active torsions:
REMARK  status: ('A' for Active; 'I' for Inactive)
REMARK    1  A    between atoms: C1_1  and  C2_2 
REMARK    2  A    between atoms: C2_2  and  N1_4 
REMARK    3  A    between atoms: C8_11  and  C11_14 
ROOT
HETATM    1  C1  UNL     1      31.102  26.319  40.319  1.00  0.00     0.114 A 
HETATM    2  O1  UNL     1      32.416  26.677  40.493  1.00  0.00    -0.307 OA
HETATM    3  C8  UNL     1      32.814  26.276  41.735  1.00  0.00     0.086 A 
HETATM    4  C9  UNL     1      31.761  25.653  42.372  1.00  0.00     0.041 A 
HETATM    5  C10 UNL     1      30.671  25.671  41.466  1.00  0.00     0.043 A 
ENDROOT
BRANCH   1   6
HETATM    6  C2  UNL     1      30.452  26.626  39.051  1.00  0.00     0.133 C 
HETATM    7  S1  UNL     1      30.426  25.373  37.920  1.00  0.00    -0.058 SA
BRANCH   6   8
HETATM    8  N1  UNL     1      29.894  27.903  38.845  1.00  0.00    -0.370 N 
HETATM    9  C3  UNL     1      28.815  28.456  39.670  1.00  0.00     0.124 C 
HETATM   10  C4  UNL     1      29.292  29.701  40.416  1.00  0.00     0.020 C 
HETATM   11  C5  UNL     1      30.098  30.656  39.527  1.00  0.00     0.003 C 
HETATM   12  C6  UNL     1      30.011  30.281  38.052  1.00  0.00     0.020 C 
HETATM   13  C7  UNL     1      30.425  28.825  37.829  1.00  0.00     0.124 C 
ENDBRANCH   6   8
ENDBRANCH   1   6
BRANCH   3  14
HETATM   14  C11 UNL     1      34.195  26.583  42.100  1.00  0.00    -0.001 A 
HETATM   15  C12 UNL     1      34.538  26.858  43.432  1.00  0.00     0.040 A 
HETATM   16  C13 UNL     1      35.860  27.155  43.790  1.00  0.00     0.056 A 
HETATM   17  C14 UNL     1      36.861  27.179  42.814  1.00  0.00     0.055 A 
HETATM   18 CL2  UNL     1      36.184  27.484  45.455  1.00  0.00    -0.083 Cl
HETATM   19  C15 UNL     1      36.534  26.906  41.485  1.00  0.00     0.026 A 
HETATM   20 CL1  UNL     1      38.510  27.537  43.182  1.00  0.00    -0.083 Cl
HETATM   21  C16 UNL     1      35.212  26.611  41.133  1.00  0.00     0.016 A 
ENDBRANCH   3  14
TORSDOF 3
