REMARK  8 active torsions:
REMARK  status: ('A' for Active; 'I' for Inactive)
REMARK    1  A    between atoms: C1_1  and  O2_11 
REMARK    2  A    between atoms: C4_4  and  O1_8 
REMARK    3  A    between atoms: C6_6  and  N1_7 
REMARK    4  A    between atoms: O1_8  and  C7_9 
REMARK    5  A    between atoms: O2_11  and  C9_12 
REMARK    6  A    between atoms: C12_15  and  O3_18 
REMARK    7  A    between atoms: O3_18  and  C15_19 
REMARK    8  A    between atoms: C15_19  and  C16_20 
ROOT
HETATM    1  C9  UNL     1      30.478  29.360  41.022  1.00  0.00     0.076 A 
HETATM    2  C10 UNL     1      31.003  28.769  42.167  1.00  0.00     0.040 A 
HETATM    3  C11 UNL     1      31.951  27.751  42.048  1.00  0.00     0.039 A 
HETATM    4  C12 UNL     1      32.365  27.303  40.790  1.00  0.00     0.069 A 
HETATM    5  C13 UNL     1      31.819  27.885  39.645  1.00  0.00     0.039 A 
HETATM    6  C14 UNL     1      30.870  28.908  39.761  1.00  0.00     0.040 A 
ENDROOT
BRANCH   1   7
HETATM    7  O2  UNL     1      29.528  30.339  41.207  1.00  0.00    -0.309 OA
BRANCH   7   8
HETATM    8  C1  UNL     1      28.780  30.703  40.106  1.00  0.00     0.097 A 
HETATM    9  C2  UNL     1      27.758  29.878  39.625  1.00  0.00     0.042 A 
HETATM   10  C3  UNL     1      27.049  30.242  38.477  1.00  0.00     0.039 A 
HETATM   11  C4  UNL     1      27.381  31.413  37.795  1.00  0.00     0.070 A 
HETATM   12  C5  UNL     1      28.420  32.221  38.276  1.00  0.00     0.062 A 
HETATM   13  C6  UNL     1      29.108  31.900  39.450  1.00  0.00     0.042 A 
BRANCH  11  14
HETATM   14  O1  UNL     1      26.784  31.873  36.653  1.00  0.00    -0.351 OA
BRANCH  14  15
HETATM   15  C7  UNL     1      27.636  32.161  35.546  1.00  0.00     0.171 C 
HETATM   16  C8  UNL     1      27.958  30.849  34.851  1.00  0.00     0.034 C 
ENDBRANCH  14  15
ENDBRANCH  11  14
BRANCH  13  17
HETATM   17  N1  UNL     1      30.228  32.656  39.834  1.00  0.00    -0.300 NA
HETATM   18  H4  UNL     1      31.010  32.543  39.193  1.00  0.00     0.124 HD
HETATM   19  H5  UNL     1      30.487  32.551  40.809  1.00  0.00     0.124 HD
ENDBRANCH  13  17
ENDBRANCH   7   8
ENDBRANCH   1   7
BRANCH   4  20
HETATM   20  O3  UNL     1      33.306  26.311  40.825  1.00  0.00    -0.347 OA
BRANCH  20  21
HETATM   21  C15 UNL     1      33.722  25.807  42.098  1.00  0.00     0.217 C 
BRANCH  21  22
HETATM   22  C16 UNL     1      34.966  26.481  42.618  1.00  0.00     0.007 A 
HETATM   23  C17 UNL     1      35.085  26.885  43.956  1.00  0.00     0.054 A 
HETATM   24  C18 UNL     1      36.263  27.479  44.402  1.00  0.00     0.117 A 
HETATM   25  C19 UNL     1      37.340  27.675  43.544  1.00  0.00     0.045 A 
HETATM   26  F1  UNL     1      36.362  27.866  45.679  1.00  0.00    -0.206 F 
HETATM   27  C20 UNL     1      37.239  27.265  42.216  1.00  0.00     0.046 A 
HETATM   28  C21 UNL     1      36.061  26.670  41.768  1.00  0.00     0.124 A 
HETATM   29  F2  UNL     1      35.985  26.276  40.488  1.00  0.00    -0.205 F 
ENDBRANCH  21  22
ENDBRANCH  20  21
ENDBRANCH   4  20
TORSDOF 8
