REMARK  5 active torsions:
REMARK  status: ('A' for Active; 'I' for Inactive)
REMARK    1  A    between atoms: C6_6  and  N1_7 
REMARK       I    between atoms: N1_7  and  C7_8 
REMARK    2  A    between atoms: N1_7  and  C8_9 
REMARK    3  A    between atoms: C7_8  and  C9_10 
REMARK    4  A    between atoms: C15_18  and  C16_19 
REMARK    5  A    between atoms: C16_19  and  C17_20 
ROOT
HETATM    1  C8  UNL     1      29.881  27.566  38.849  1.00  0.00     0.096 C 
HETATM    2  C11 UNL     1      31.268  27.032  38.564  1.00  0.00     0.056 C 
HETATM    3  C12 UNL     1      32.101  27.011  39.807  1.00  0.00     0.274 A 
HETATM    4  N2  UNL     1      31.505  26.176  40.837  1.00  0.00     0.088 N 
HETATM    5  C13 UNL     1      30.133  26.448  41.085  1.00  0.00     0.274 A 
HETATM    6  C14 UNL     1      29.498  27.519  40.280  1.00  0.00     0.056 C 
HETATM    7  C15 UNL     1      32.275  26.361  42.047  1.00  0.00     0.277 A 
HETATM    8 CL1  UNL     1      31.796  27.613  40.741  1.00  0.00    -0.145 Cl
HETATM    9  H28 UNL     1      30.982  28.272  39.857  1.00  0.00     0.145 HD
ENDROOT
BRANCH   1  10
HETATM   10  N1  UNL     1      29.747  28.860  38.271  1.00  0.00    -0.313 N 
HETATM   11  C7  UNL     1      30.131  29.013  36.884  1.00  0.00     0.224 C 
HETATM   12  O1  UNL     1      29.966  30.134  36.343  1.00  0.00    -0.273 OA
BRANCH  10  13
HETATM   13  C6  UNL     1      29.217  30.027  38.885  1.00  0.00     0.037 A 
HETATM   14  C1  UNL     1      27.822  30.124  38.921  1.00  0.00     0.033 A 
HETATM   15  C2  UNL     1      27.179  31.203  39.478  1.00  0.00     0.044 A 
HETATM   16  C3  UNL     1      27.994  32.186  40.000  1.00  0.00     0.116 A 
HETATM   17  C4  UNL     1      29.364  32.121  39.982  1.00  0.00     0.044 A 
HETATM   18  F1  UNL     1      27.368  33.269  40.560  1.00  0.00    -0.206 F 
HETATM   19  C5  UNL     1      29.972  31.022  39.413  1.00  0.00     0.033 A 
ENDBRANCH  10  13
BRANCH  11  20
HETATM   20  C9  UNL     1      30.709  27.864  36.108  1.00  0.00     0.099 C 
HETATM   21  C10 UNL     1      30.428  28.115  34.654  1.00  0.00     0.014 C 
ENDBRANCH  11  20
ENDBRANCH   1  10
BRANCH   7  22
HETATM   22  C16 UNL     1      33.673  25.789  41.944  1.00  0.00     0.068 C 
BRANCH  22  23
HETATM   23  C17 UNL     1      34.476  26.429  43.033  1.00  0.00    -0.057 A 
HETATM   24  C18 UNL     1      34.218  27.683  43.499  1.00  0.00     0.007 A 
HETATM   25  C19 UNL     1      34.944  28.311  44.510  1.00  0.00     0.001 A 
HETATM   26  C20 UNL     1      35.993  27.606  45.070  1.00  0.00     0.000 A 
HETATM   27  C21 UNL     1      36.270  26.339  44.613  1.00  0.00     0.001 A 
HETATM   28  C22 UNL     1      35.528  25.734  43.601  1.00  0.00     0.007 A 
ENDBRANCH  22  23
ENDBRANCH   7  22
TORSDOF 5
