REMARK  6 active torsions:
REMARK  status: ('A' for Active; 'I' for Inactive)
REMARK    1  A    between atoms: C3_3  and  O6_30 
REMARK    2  A    between atoms: C7_7  and  O1_19 
REMARK    3  A    between atoms: C12_12  and  O7_31 
REMARK    4  A    between atoms: C16_16  and  C19_22 
REMARK    5  A    between atoms: C17_17  and  O5_25 
REMARK    6  A    between atoms: C18_18  and  N2_26 
REMARK       I    between atoms: C19_22  and  N1_23 
ROOT
HETATM    1  C1  UNL     1      27.648  31.569  31.648  1.00  0.00     0.027 A 
HETATM    2  C2  UNL     1      28.203  30.359  31.375  1.00  0.00     0.039 A 
HETATM    3  C3  UNL     1      28.789  29.627  32.427  1.00  0.00     0.079 A 
HETATM    4  C4  UNL     1      28.778  30.169  33.703  1.00  0.00     0.044 A 
HETATM    5  C5  UNL     1      28.206  31.410  33.975  1.00  0.00     0.008 A 
HETATM    6  C6  UNL     1      27.642  32.105  32.940  1.00  0.00     0.045 A 
HETATM    7  C7  UNL     1      29.362  29.441  34.735  1.00  0.00     0.094 A 
HETATM    8  C8  UNL     1      29.352  29.978  35.992  1.00  0.00     0.054 A 
HETATM    9  C9  UNL     1      28.792  31.203  36.281  1.00  0.00    -0.034 A 
HETATM   10  C10 UNL     1      28.197  31.951  35.246  1.00  0.00    -0.042 A 
HETATM   11  C11 UNL     1      29.917  29.246  37.103  1.00  0.00     0.205 A 
HETATM   12  C12 UNL     1      30.484  29.977  38.242  1.00  0.00     0.194 C 
HETATM   13  C13 UNL     1      29.600  31.118  38.673  1.00  0.00     0.080 A 
HETATM   14  C14 UNL     1      28.811  31.776  37.618  1.00  0.00     0.051 A 
HETATM   15  C15 UNL     1      30.765  29.012  39.326  1.00  0.00     0.210 C 
HETATM   16  C16 UNL     1      30.412  29.325  40.695  1.00  0.00     0.112 C 
HETATM   17  C17 UNL     1      29.359  30.086  40.908  1.00  0.00     0.096 C 
HETATM   18  C18 UNL     1      28.613  30.564  39.716  1.00  0.00     0.287 C 
HETATM   19  O2  UNL     1      29.923  28.006  37.095  1.00  0.00    -0.288 OA
HETATM   20  O3  UNL     1      31.318  27.911  39.031  1.00  0.00    -0.288 OA
HETATM   21 CL1  UNL     1      26.902  33.665  33.105  1.00  0.00    -0.083 Cl
HETATM   22  C22 UNL     1      27.565  33.245  35.483  1.00  0.00     0.049 C 
HETATM   23 CL2  UNL     1      28.889  30.599  36.866  1.00  0.00    -0.145 Cl
HETATM   24  H22 UNL     1      29.140  30.570  38.227  1.00  0.00     0.145 HD
ENDROOT
BRANCH  16  25
HETATM   25  C19 UNL     1      31.229  28.791  41.788  1.00  0.00     0.255 C 
HETATM   26  N1  UNL     1      32.566  28.385  41.626  1.00  0.00    -0.366 N 
HETATM   27  H8  UNL     1      32.890  27.386  41.651  1.00  0.00     0.159 HD
HETATM   28  H9  UNL     1      33.298  29.132  41.467  1.00  0.00     0.159 HD
HETATM   29  O4  UNL     1      30.690  28.699  42.917  1.00  0.00    -0.268 OA
ENDBRANCH  16  25
BRANCH  17  30
HETATM   30  O5  UNL     1      29.000  30.399  42.208  1.00  0.00    -0.362 OA
HETATM   31  H10 UNL     1      28.092  30.074  42.551  1.00  0.00     0.217 HD
ENDBRANCH  17  30
BRANCH  12  32
HETATM   32  O7  UNL     1      31.741  30.472  37.820  1.00  0.00    -0.373 OA
HETATM   33  H18 UNL     1      32.279  29.659  37.610  1.00  0.00     0.211 HD
ENDBRANCH  12  32
BRANCH  18  34
HETATM   34  N2  UNL     1      27.575  31.493  40.011  1.00  0.00     0.091 N 
HETATM   35  C20 UNL     1      27.962  32.538  40.929  1.00  0.00     0.310 C 
HETATM   36  C21 UNL     1      26.473  30.764  40.595  1.00  0.00     0.310 C 
ENDBRANCH  18  34
BRANCH   7  37
HETATM   37  O1  UNL     1      29.922  28.231  34.475  1.00  0.00    -0.359 OA
HETATM   38  H7  UNL     1      30.105  27.777  33.638  1.00  0.00     0.217 HD
ENDBRANCH   7  37
BRANCH   3  39
HETATM   39  O6  UNL     1      29.323  28.428  32.081  1.00  0.00    -0.360 OA
HETATM   40  H17 UNL     1      30.076  28.039  31.646  1.00  0.00     0.217 HD
ENDBRANCH   3  39
TORSDOF 6
