REMARK  6 active torsions:
REMARK  status: ('A' for Active; 'I' for Inactive)
REMARK    1  A    between atoms: C7_8  and  C10_12 
REMARK    2  A    between atoms: C9_10  and  C11_15 
REMARK       I    between atoms: C10_12  and  N2_14 
REMARK       I    between atoms: C11_15  and  N3_16 
REMARK    3  A    between atoms: N3_16  and  C12_18 
REMARK    4  A    between atoms: N4_20  and  C16_24 
REMARK    5  A    between atoms: C14_22  and  C23_31 
REMARK    6  A    between atoms: C16_24  and  C17_25 
ROOT
HETATM    1  C17 UNL     1      34.307  25.936  42.519  1.00  0.00    -0.038 A 
HETATM    2  C18 UNL     1      34.886  26.370  43.720  1.00  0.00     0.010 A 
HETATM    3  C19 UNL     1      36.146  26.977  43.721  1.00  0.00     0.023 A 
HETATM    4  C20 UNL     1      36.838  27.164  42.520  1.00  0.00     0.044 A 
HETATM    5  C21 UNL     1      36.263  26.743  41.318  1.00  0.00     0.023 A 
HETATM    6  C22 UNL     1      35.005  26.137  41.318  1.00  0.00     0.010 A 
HETATM    7  C24 UNL     1      38.130  27.786  42.523  1.00  0.00     0.099 C 
HETATM    8  N6  UNL     1      39.176  28.289  42.534  1.00  0.00    -0.191 NA
ENDROOT
BRANCH   1   9
HETATM    9  C16 UNL     1      32.941  25.289  42.515  1.00  0.00     0.189 C 
BRANCH   9  10
HETATM   10  N4  UNL     1      32.087  25.815  41.451  1.00  0.00    -0.267 N 
HETATM   11  C13 UNL     1      31.538  27.069  41.343  1.00  0.00     0.056 A 
HETATM   12  C12 UNL     1      30.764  27.042  40.192  1.00  0.00     0.095 A 
HETATM   13  C15 UNL     1      31.751  28.128  42.366  1.00  0.00     0.072 C 
HETATM   14  C14 UNL     1      30.994  25.753  39.610  1.00  0.00     0.189 A 
HETATM   15  N5  UNL     1      31.798  25.019  40.410  1.00  0.00    -0.165 NA
BRANCH  12  16
HETATM   16  N3  UNL     1      30.006  28.137  39.804  1.00  0.00    -0.319 N 
HETATM   17  C11 UNL     1      30.289  28.967  38.742  1.00  0.00     0.257 C 
HETATM   18  O2  UNL     1      31.170  28.820  37.909  1.00  0.00    -0.267 OA
HETATM   19  H7  UNL     1      29.097  28.232  40.238  1.00  0.00     0.169 HD
BRANCH  17  20
HETATM   20  C9  UNL     1      29.329  30.078  38.557  1.00  0.00     0.047 A 
HETATM   21  C5  UNL     1      28.893  30.504  37.281  1.00  0.00     0.009 A 
HETATM   22  C4  UNL     1      28.029  31.621  37.264  1.00  0.00     0.071 A 
HETATM   23  C6  UNL     1      29.241  29.886  36.052  1.00  0.00     0.018 A 
HETATM   24  C3  UNL     1      27.576  32.105  36.048  1.00  0.00     0.074 A 
HETATM   25  N1  UNL     1      27.618  32.236  38.380  1.00  0.00    -0.243 NA
HETATM   26  C2  UNL     1      27.943  31.499  34.853  1.00  0.00     0.118 A 
HETATM   27  C1  UNL     1      28.768  30.389  34.842  1.00  0.00     0.043 A 
HETATM   28  F1  UNL     1      27.486  31.991  33.694  1.00  0.00    -0.206 F 
HETATM   29  C7  UNL     1      28.019  31.762  39.585  1.00  0.00     0.125 A 
HETATM   30  C8  UNL     1      28.875  30.690  39.724  1.00  0.00     0.055 A 
BRANCH  29  31
HETATM   31  C10 UNL     1      27.502  32.493  40.786  1.00  0.00     0.268 C 
HETATM   32  O1  UNL     1      27.130  31.915  41.799  1.00  0.00    -0.266 OA
HETATM   33  N2  UNL     1      27.470  33.866  40.722  1.00  0.00    -0.365 N 
HETATM   34  H5  UNL     1      28.034  34.384  40.062  1.00  0.00     0.159 HD
HETATM   35  H6  UNL     1      27.251  34.329  41.596  1.00  0.00     0.159 HD
ENDBRANCH  29  31
ENDBRANCH  17  20
ENDBRANCH  12  16
BRANCH  14  36
HETATM   36  C23 UNL     1      30.550  25.198  38.277  1.00  0.00     0.438 C 
HETATM   37  F2  UNL     1      30.747  23.859  38.161  1.00  0.00    -0.164 F 
HETATM   38  F3  UNL     1      29.240  25.463  38.010  1.00  0.00    -0.164 F 
HETATM   39  F4  UNL     1      31.240  25.761  37.237  1.00  0.00    -0.164 F 
ENDBRANCH  14  36
ENDBRANCH   9  10
ENDBRANCH   1   9
TORSDOF 6
