REMARK  7 active torsions:
REMARK  status: ('A' for Active; 'I' for Inactive)
REMARK    1  A    between atoms: C2_2  and  O1_18 
REMARK    2  A    between atoms: C8_8  and  O2_29 
REMARK    3  A    between atoms: C17_17  and  C20_21 
REMARK    4  A    between atoms: C20_21  and  C21_22 
REMARK    5  A    between atoms: C21_22  and  C22_23 
REMARK    6  A    between atoms: C22_23  and  C23_24 
REMARK    7  A    between atoms: C23_24  and  C24_25 
ROOT
HETATM    1  C1  UNL     1      27.662  31.122  35.125  1.00  0.00     0.033 C 
HETATM    2  C2  UNL     1      27.364  32.528  35.626  1.00  0.00     0.122 C 
HETATM    3  C3  UNL     1      27.221  32.573  37.153  1.00  0.00     0.066 C 
HETATM    4  C4  UNL     1      27.783  31.356  37.871  1.00  0.00    -0.070 C 
HETATM    5  C5  UNL     1      29.059  30.726  37.302  1.00  0.00    -0.017 C 
HETATM    6  C6  UNL     1      28.943  30.557  35.749  1.00  0.00     0.016 C 
HETATM    7  C7  UNL     1      27.157  30.877  38.962  1.00  0.00     0.008 C 
HETATM    8  C8  UNL     1      27.630  29.722  39.787  1.00  0.00     0.146 C 
HETATM    9  C9  UNL     1      29.075  29.288  39.474  1.00  0.00     0.028 C 
HETATM   10  C10 UNL     1      29.318  29.301  37.939  1.00  0.00     0.005 C 
HETATM   11  C11 UNL     1      29.361  27.872  40.014  1.00  0.00     0.001 C 
HETATM   12  C12 UNL     1      30.801  27.366  39.741  1.00  0.00    -0.036 C 
HETATM   13  C13 UNL     1      30.958  27.322  38.210  1.00  0.00     0.010 C 
HETATM   14  C14 UNL     1      30.694  28.693  37.565  1.00  0.00     0.007 C 
HETATM   15  C15 UNL     1      29.160  27.605  41.497  1.00  0.00     0.006 C 
HETATM   16  C16 UNL     1      29.932  26.304  41.750  1.00  0.00     0.006 C 
HETATM   17  C17 UNL     1      30.731  25.978  40.459  1.00  0.00    -0.002 C 
HETATM   18  C18 UNL     1      30.225  31.695  37.620  1.00  0.00     0.020 C 
HETATM   19  C19 UNL     1      31.898  28.257  40.373  1.00  0.00     0.016 C 
ENDROOT
BRANCH  17  20
HETATM   20  C20 UNL     1      32.045  25.190  40.749  1.00  0.00    -0.014 C 
HETATM   21  C27 UNL     1      31.933  23.714  40.341  1.00  0.00     0.010 C 
BRANCH  20  22
HETATM   22  C21 UNL     1      32.441  25.229  42.256  1.00  0.00     0.005 C 
BRANCH  22  23
HETATM   23  C22 UNL     1      33.431  26.337  42.626  1.00  0.00     0.001 C 
BRANCH  23  24
HETATM   24  C23 UNL     1      34.731  25.838  43.276  1.00  0.00     0.004 C 
BRANCH  24  25
HETATM   25  C24 UNL     1      36.047  25.960  42.482  1.00  0.00    -0.023 C 
HETATM   26  C25 UNL     1      35.834  26.350  41.018  1.00  0.00     0.009 C 
HETATM   27  C26 UNL     1      36.937  24.723  42.592  1.00  0.00     0.009 C 
ENDBRANCH  24  25
ENDBRANCH  23  24
ENDBRANCH  22  23
ENDBRANCH  20  22
ENDBRANCH  17  20
BRANCH   8  28
HETATM   28  O2  UNL     1      27.556  30.109  41.157  1.00  0.00    -0.391 OA
HETATM   29  H46 UNL     1      26.875  29.561  41.579  1.00  0.00     0.210 HD
ENDBRANCH   8  28
BRANCH   2  30
HETATM   30  O1  UNL     1      28.414  33.410  35.221  1.00  0.00    -0.395 OA
HETATM   31  H22 UNL     1      28.788  33.810  36.025  1.00  0.00     0.210 HD
ENDBRANCH   2  30
TORSDOF 7
