REMARK  8 active torsions:
REMARK  status: ('A' for Active; 'I' for Inactive)
REMARK    1  A    between atoms: C2_2  and  O1_18 
REMARK    2  A    between atoms: C17_17  and  C20_21 
REMARK    3  A    between atoms: C20_21  and  C21_22 
REMARK    4  A    between atoms: C20_21  and  O2_24 
REMARK    5  A    between atoms: C21_22  and  C22_23 
REMARK    6  A    between atoms: C22_23  and  O3_25 
REMARK    7  A    between atoms: C22_23  and  C23_26 
REMARK    8  A    between atoms: C22_23  and  C24_27 
ROOT
HETATM    1  C1  UNL     1      28.272  32.787  38.402  1.00  0.00     0.033 C 
HETATM    2  C2  UNL     1      27.622  32.577  37.027  1.00  0.00     0.122 C 
HETATM    3  C3  UNL     1      27.341  31.098  36.710  1.00  0.00     0.066 C 
HETATM    4  C4  UNL     1      28.279  30.196  37.472  1.00  0.00    -0.072 C 
HETATM    5  C5  UNL     1      28.178  30.278  39.003  1.00  0.00    -0.017 C 
HETATM    6  C6  UNL     1      27.786  31.737  39.407  1.00  0.00     0.016 C 
HETATM    7  C7  UNL     1      29.207  29.465  36.830  1.00  0.00    -0.023 C 
HETATM    8  C8  UNL     1      30.266  28.657  37.509  1.00  0.00     0.033 C 
HETATM    9  C9  UNL     1      30.089  28.529  39.030  1.00  0.00    -0.001 C 
HETATM   10  C10 UNL     1      29.557  29.858  39.649  1.00  0.00     0.003 C 
HETATM   11  C11 UNL     1      31.411  28.143  39.705  1.00  0.00    -0.001 C 
HETATM   12  C12 UNL     1      31.299  27.931  41.235  1.00  0.00    -0.034 C 
HETATM   13  C13 UNL     1      30.861  29.287  41.818  1.00  0.00     0.010 C 
HETATM   14  C14 UNL     1      29.544  29.790  41.199  1.00  0.00     0.007 C 
HETATM   15  C15 UNL     1      32.124  26.896  39.210  1.00  0.00     0.006 C 
HETATM   16  C16 UNL     1      33.125  26.582  40.327  1.00  0.00     0.008 C 
HETATM   17  C17 UNL     1      32.761  27.488  41.544  1.00  0.00     0.023 C 
HETATM   18  C18 UNL     1      27.033  29.341  39.457  1.00  0.00     0.020 C 
HETATM   19  C19 UNL     1      30.299  26.826  41.647  1.00  0.00     0.016 C 
ENDROOT
BRANCH  17  20
HETATM   20  C20 UNL     1      33.090  26.764  42.871  1.00  0.00     0.126 C 
BRANCH  20  21
HETATM   21  C21 UNL     1      34.526  26.255  42.986  1.00  0.00     0.089 C 
BRANCH  21  22
HETATM   22  C22 UNL     1      35.584  27.349  43.266  1.00  0.00     0.256 C 
BRANCH  22  23
HETATM   23  O3  UNL     1      34.930  28.636  43.007  1.00  0.00    -0.374 OA
HETATM   24  H34 UNL     1      34.341  28.513  42.233  1.00  0.00     0.211 HD
ENDBRANCH  22  23
BRANCH  22  25
HETATM   25  C23 UNL     1      36.203  27.329  44.661  1.00  0.00     0.427 C 
HETATM   26  F1  UNL     1      37.392  27.958  44.729  1.00  0.00    -0.167 F 
HETATM   27  F2  UNL     1      35.376  27.935  45.554  1.00  0.00    -0.167 F 
HETATM   28  F3  UNL     1      36.361  26.068  45.131  1.00  0.00    -0.167 F 
ENDBRANCH  22  25
BRANCH  22  29
HETATM   29  C24 UNL     1      36.760  27.143  42.312  1.00  0.00     0.427 C 
HETATM   30  F4  UNL     1      37.500  28.267  42.185  1.00  0.00    -0.167 F 
HETATM   31  F5  UNL     1      36.321  26.835  41.066  1.00  0.00    -0.167 F 
HETATM   32  F6  UNL     1      37.582  26.146  42.696  1.00  0.00    -0.167 F 
ENDBRANCH  22  29
ENDBRANCH  21  22
ENDBRANCH  20  21
BRANCH  20  33
HETATM   33  O2  UNL     1      32.271  25.592  42.929  1.00  0.00    -0.395 OA
HETATM   34  H33 UNL     1      31.399  25.814  42.553  1.00  0.00     0.210 HD
ENDBRANCH  20  33
ENDBRANCH  17  20
BRANCH   2  35
HETATM   35  O1  UNL     1      26.389  33.304  37.000  1.00  0.00    -0.395 OA
HETATM   36  H23 UNL     1      26.599  34.223  36.764  1.00  0.00     0.210 HD
ENDBRANCH   2  35
TORSDOF 8
