REMARK  5 active torsions:
REMARK  status: ('A' for Active; 'I' for Inactive)
REMARK    1  A    between atoms: C1_2  and  N6_15 
REMARK    2  A    between atoms: C4_6  and  C5_10 
REMARK    3  A    between atoms: N3_7  and  C9_16 
REMARK    4  A    between atoms: C9_16  and  C10_17 
REMARK    5  A    between atoms: C13_20  and  N7_23 
ROOT
HETATM    1  N1  UNL     1      30.651  28.669  38.016  1.00  0.00    -0.213 NA
HETATM    2  C1  UNL     1      31.336  27.516  38.050  1.00  0.00     0.202 A 
HETATM    3  N2  UNL     1      31.807  26.897  39.141  1.00  0.00    -0.197 NA
HETATM    4  C2  UNL     1      31.539  27.580  40.267  1.00  0.00     0.179 A 
HETATM    5  C3  UNL     1      30.863  28.781  40.384  1.00  0.00     0.153 A 
HETATM    6  C4  UNL     1      30.409  29.324  39.187  1.00  0.00     0.128 A 
HETATM    7  N3  UNL     1      31.863  27.263  41.555  1.00  0.00    -0.251 N 
HETATM    8  N4  UNL     1      31.443  28.215  42.417  1.00  0.00     0.007 NA
HETATM    9  N5  UNL     1      30.816  29.147  41.705  1.00  0.00    -0.153 NA
ENDROOT
BRANCH   7  10
HETATM   10  C9  UNL     1      32.611  26.115  42.020  1.00  0.00     0.187 C 
BRANCH  10  11
HETATM   11  C10 UNL     1      34.060  26.461  42.252  1.00  0.00    -0.038 A 
HETATM   12  C11 UNL     1      34.961  26.502  41.184  1.00  0.00     0.011 A 
HETATM   13  C12 UNL     1      36.299  26.838  41.405  1.00  0.00     0.024 A 
HETATM   14  C13 UNL     1      36.758  27.184  42.680  1.00  0.00     0.011 A 
HETATM   15  C14 UNL     1      35.874  27.090  43.769  1.00  0.00    -0.040 A 
HETATM   16  C15 UNL     1      34.527  26.756  43.539  1.00  0.00     0.017 A 
HETATM   17  C16 UNL     1      36.330  27.357  45.178  1.00  0.00     0.050 C 
BRANCH  14  18
HETATM   18  N7  UNL     1      38.132  27.407  42.867  1.00  0.00    -0.302 NA
HETATM   19  H11 UNL     1      38.392  28.386  42.888  1.00  0.00     0.124 HD
HETATM   20  H12 UNL     1      38.718  26.873  42.233  1.00  0.00     0.124 HD
ENDBRANCH  14  18
ENDBRANCH  10  11
ENDBRANCH   7  10
BRANCH   2  21
HETATM   21  N6  UNL     1      31.543  26.889  36.839  1.00  0.00    -0.271 NA
HETATM   22  H4  UNL     1      30.959  26.068  36.768  1.00  0.00     0.127 HD
HETATM   23  H5  UNL     1      32.531  26.773  36.664  1.00  0.00     0.127 HD
ENDBRANCH   2  21
BRANCH   6  24
HETATM   24  C5  UNL     1      29.681  30.571  39.104  1.00  0.00     0.106 A 
HETATM   25  O1  UNL     1      30.189  31.645  39.778  1.00  0.00    -0.320 OA
HETATM   26  C6  UNL     1      29.353  32.693  39.562  1.00  0.00     0.142 A 
HETATM   27  C7  UNL     1      28.307  32.315  38.756  1.00  0.00     0.027 A 
HETATM   28  C8  UNL     1      28.517  30.947  38.459  1.00  0.00     0.041 A 
ENDBRANCH   6  24
TORSDOF 5
