REMARK  7 active torsions:
REMARK  status: ('A' for Active; 'I' for Inactive)
REMARK    1  A    between atoms: C7_7  and  C9_10 
REMARK    2  A    between atoms: N1_9  and  C10_13 
REMARK       I    between atoms: C9_10  and  N2_11 
REMARK    3  A    between atoms: N2_11  and  C17_21 
REMARK    4  A    between atoms: C10_13  and  C11_14 
REMARK    5  A    between atoms: C17_21  and  C18_22 
REMARK    6  A    between atoms: C17_21  and  C22_26 
REMARK    7  A    between atoms: C22_26  and  O2_27 
ROOT
HETATM    1  C1  UNL     1      31.652  24.611  40.370  1.00  0.00     0.030 A 
HETATM    2  C2  UNL     1      31.244  23.768  39.334  1.00  0.00     0.002 A 
HETATM    3  C3  UNL     1      30.759  24.290  38.142  1.00  0.00     0.001 A 
HETATM    4  C4  UNL     1      30.660  25.673  37.961  1.00  0.00     0.015 A 
HETATM    5  C5  UNL     1      31.043  26.555  38.998  1.00  0.00     0.008 A 
HETATM    6  C6  UNL     1      31.551  26.000  40.180  1.00  0.00     0.045 A 
HETATM    7  C7  UNL     1      31.060  27.985  39.147  1.00  0.00     0.060 A 
HETATM    8  C8  UNL     1      31.613  28.241  40.389  1.00  0.00     0.109 A 
HETATM    9  N1  UNL     1      31.901  27.051  41.003  1.00  0.00    -0.351 N 
ENDROOT
BRANCH   7  10
HETATM   10  C9  UNL     1      30.625  29.040  38.237  1.00  0.00     0.254 C 
HETATM   11  N2  UNL     1      29.923  30.064  38.835  1.00  0.00    -0.342 N 
HETATM   12  H6  UNL     1      30.101  30.167  39.827  1.00  0.00     0.163 HD
HETATM   13  O1  UNL     1      30.913  29.040  37.044  1.00  0.00    -0.268 OA
BRANCH  11  14
HETATM   14  C17 UNL     1      29.628  31.297  38.098  1.00  0.00     0.190 C 
BRANCH  14  15
HETATM   15  C18 UNL     1      28.181  31.300  37.519  1.00  0.00    -0.021 C 
HETATM   16  C19 UNL     1      27.296  30.347  38.353  1.00  0.00     0.017 C 
HETATM   17  C20 UNL     1      28.182  30.785  36.067  1.00  0.00     0.017 C 
HETATM   18  C21 UNL     1      27.541  32.701  37.540  1.00  0.00     0.017 C 
ENDBRANCH  14  15
BRANCH  14  19
HETATM   19  C22 UNL     1      29.897  32.458  39.063  1.00  0.00     0.164 C 
HETATM   20  O3  UNL     1      29.368  32.627  40.152  1.00  0.00    -0.648 OA
BRANCH  19  21
HETATM   21  O2  UNL     1      30.794  33.349  38.596  1.00  0.00    -0.775 OA
HETATM   22  H23 UNL     1      30.260  34.148  38.399  1.00  0.00     0.167 HD
ENDBRANCH  19  21
ENDBRANCH  14  19
ENDBRANCH  11  14
ENDBRANCH   7  10
BRANCH   9  23
HETATM   23  C10 UNL     1      32.449  26.938  42.351  1.00  0.00     0.167 C 
BRANCH  23  24
HETATM   24  C11 UNL     1      33.901  26.517  42.359  1.00  0.00    -0.040 A 
HETATM   25  C12 UNL     1      34.454  25.925  43.507  1.00  0.00     0.012 A 
HETATM   26  C13 UNL     1      35.800  25.552  43.534  1.00  0.00     0.043 A 
HETATM   27  C14 UNL     1      36.597  25.778  42.419  1.00  0.00     0.116 A 
HETATM   28  C15 UNL     1      36.075  26.372  41.277  1.00  0.00     0.043 A 
HETATM   29  F1  UNL     1      37.888  25.421  42.446  1.00  0.00    -0.206 F 
HETATM   30  C16 UNL     1      34.731  26.745  41.247  1.00  0.00     0.012 A 
ENDBRANCH  23  24
ENDBRANCH   9  23
TORSDOF 7
