REMARK  5 active torsions:
REMARK  status: ('A' for Active; 'I' for Inactive)
REMARK    1  A    between atoms: C4_4  and  C10_12 
REMARK    2  A    between atoms: N1_6  and  C11_15 
REMARK    3  A    between atoms: C7_8  and  N2_18 
REMARK    4  A    between atoms: C9_10  and  N4_26 
REMARK    5  A    between atoms: C10_12  and  O2_13 
ROOT
HETATM    1  C1  UNL     1      30.465  28.821  38.333  1.00  0.00     0.092 A 
HETATM    2  C2  UNL     1      29.657  29.788  38.964  1.00  0.00     0.069 A 
HETATM    3  C3  UNL     1      28.708  30.587  38.128  1.00  0.00     0.204 C 
HETATM    4  C4  UNL     1      28.851  30.528  36.653  1.00  0.00     0.104 C 
HETATM    5  C5  UNL     1      29.650  29.568  36.170  1.00  0.00     0.114 C 
HETATM    6  N1  UNL     1      30.363  28.649  36.917  1.00  0.00    -0.347 N 
HETATM    7  C6  UNL     1      31.351  28.074  39.142  1.00  0.00     0.173 A 
HETATM    8  C7  UNL     1      31.450  28.219  40.547  1.00  0.00     0.112 A 
HETATM    9  C8  UNL     1      30.617  29.206  41.110  1.00  0.00     0.168 A 
HETATM   10  C9  UNL     1      29.705  29.975  40.360  1.00  0.00     0.064 A 
HETATM   11  O1  UNL     1      27.819  31.244  38.659  1.00  0.00    -0.286 OA
HETATM   12  F1  UNL     1      32.191  27.211  38.542  1.00  0.00    -0.201 F 
HETATM   13  F2  UNL     1      30.628  29.423  42.438  1.00  0.00    -0.202 F 
ENDROOT
BRANCH   8  14
HETATM   14  N2  UNL     1      32.363  27.443  41.296  1.00  0.00    -0.372 N 
HETATM   15  C12 UNL     1      33.743  27.276  40.814  1.00  0.00     0.158 C 
HETATM   16  C13 UNL     1      34.477  26.120  41.552  1.00  0.00     0.234 C 
HETATM   17  N3  UNL     1      34.185  25.935  42.995  1.00  0.00     0.095 N 
HETATM   18  C16 UNL     1      35.992  26.257  41.378  1.00  0.00     0.044 C 
HETATM   19  C14 UNL     1      33.447  27.075  43.574  1.00  0.00     0.234 C 
HETATM   20  H7  UNL     1      33.564  25.126  43.059  1.00  0.00     0.317 HD
HETATM   21  C15 UNL     1      32.182  27.480  42.768  1.00  0.00     0.158 C 
HETATM   22  C17 UNL     1      34.370  28.261  43.871  1.00  0.00     0.044 C 
ENDBRANCH   8  14
BRANCH  10  23
HETATM   23  N4  UNL     1      29.041  31.045  40.998  1.00  0.00    -0.299 NA
HETATM   24  H17 UNL     1      29.672  31.811  41.261  1.00  0.00     0.124 HD
HETATM   25  H18 UNL     1      28.197  31.355  40.524  1.00  0.00     0.124 HD
ENDBRANCH  10  23
BRANCH   6  26
HETATM   26  C11 UNL     1      31.123  27.609  36.192  1.00  0.00     0.090 A 
HETATM   27  C18 UNL     1      30.514  26.260  35.896  1.00  0.00     0.028 A 
HETATM   28  C19 UNL     1      30.798  27.205  34.775  1.00  0.00     0.028 A 
ENDBRANCH   6  26
BRANCH   4  29
HETATM   29  C10 UNL     1      28.147  31.463  35.758  1.00  0.00     0.181 C 
HETATM   30  O3  UNL     1      27.464  31.182  34.794  1.00  0.00    -0.646 OA
BRANCH  29  31
HETATM   31  O2  UNL     1      28.308  32.757  36.103  1.00  0.00    -0.773 OA
HETATM   32  H2  UNL     1      27.620  33.215  35.574  1.00  0.00     0.167 HD
ENDBRANCH  29  31
ENDBRANCH   4  29
TORSDOF 5
