REMARK  7 active torsions:
REMARK  status: ('A' for Active; 'I' for Inactive)
REMARK    1  A    between atoms: C1_1  and  O1_7 
REMARK    2  A    between atoms: C4_4  and  C7_8 
REMARK    3  A    between atoms: C7_8  and  C8_9 
REMARK    4  A    between atoms: C8_9  and  N1_10 
REMARK    5  A    between atoms: N1_10  and  C9_11 
REMARK    6  A    between atoms: C11_15  and  N7_20 
REMARK    7  A    between atoms: C12_18  and  C13_21 
ROOT
HETATM    1  C9  UNL     1      31.855  28.265  41.169  1.00  0.00     0.754 A 
HETATM    2  N2  UNL     1      31.004  29.256  41.235  1.00  0.00     0.133 NA
HETATM    3  C10 UNL     1      30.301  29.541  40.115  1.00  0.00     0.782 A 
HETATM    4  N3  UNL     1      30.508  28.820  38.982  1.00  0.00     0.121 N 
HETATM    5  C11 UNL     1      31.418  27.771  38.954  1.00  0.00     0.752 A 
HETATM    6  N4  UNL     1      32.070  27.491  40.042  1.00  0.00     0.131 NA
HETATM    7  N5  UNL     1      29.372  30.436  39.862  1.00  0.00    -0.035 NA
HETATM    8  C12 UNL     1      29.042  30.201  38.544  1.00  0.00     0.223 A 
HETATM    9  N6  UNL     1      29.713  29.191  37.960  1.00  0.00    -0.113 NA
ENDROOT
BRANCH   1  10
HETATM   10  N1  UNL     1      32.565  27.988  42.299  1.00  0.00    -0.221 N 
HETATM   11  H10 UNL     1      32.474  28.733  42.984  1.00  0.00     0.177 HD
BRANCH  10  12
HETATM   12  C8  UNL     1      32.674  26.653  42.857  1.00  0.00     0.142 C 
BRANCH  12  13
HETATM   13  C7  UNL     1      33.951  25.955  42.373  1.00  0.00     0.058 C 
BRANCH  13  14
HETATM   14  C4  UNL     1      35.220  26.624  42.849  1.00  0.00    -0.057 A 
HETATM   15  C3  UNL     1      36.237  26.948  41.939  1.00  0.00     0.010 A 
HETATM   16  C2  UNL     1      37.416  27.548  42.383  1.00  0.00     0.037 A 
HETATM   17  C1  UNL     1      37.582  27.824  43.735  1.00  0.00     0.065 A 
HETATM   18  C6  UNL     1      36.586  27.511  44.654  1.00  0.00     0.037 A 
HETATM   19  C5  UNL     1      35.405  26.912  44.210  1.00  0.00     0.010 A 
BRANCH  17  20
HETATM   20  O1  UNL     1      38.751  28.408  44.125  1.00  0.00    -0.361 OA
HETATM   21  H5  UNL     1      39.043  29.012  43.425  1.00  0.00     0.217 HD
ENDBRANCH  17  20
ENDBRANCH  13  14
ENDBRANCH  12  13
ENDBRANCH  10  12
ENDBRANCH   1  10
BRANCH   5  22
HETATM   22  N7  UNL     1      31.585  27.056  37.794  1.00  0.00    -0.230 N 
HETATM   23  H11 UNL     1      32.424  26.490  37.759  1.00  0.00     0.174 HD
HETATM   24  H12 UNL     1      30.746  26.611  37.428  1.00  0.00     0.174 HD
ENDBRANCH   5  22
BRANCH   8  25
HETATM   25  C13 UNL     1      27.959  31.043  37.792  1.00  0.00     0.125 A 
HETATM   26  O2  UNL     1      28.155  32.300  37.291  1.00  0.00    -0.319 OA
HETATM   27  C14 UNL     1      26.991  32.692  36.714  1.00  0.00     0.142 A 
HETATM   28  C15 UNL     1      26.039  31.708  36.834  1.00  0.00     0.027 A 
HETATM   29  C16 UNL     1      26.662  30.643  37.529  1.00  0.00     0.043 A 
ENDBRANCH   8  25
TORSDOF 7
