REMARK  20 active torsions:
REMARK  status: ('A' for Active; 'I' for Inactive)
REMARK    1  A    between atoms: C1_1  and  C11_11 
REMARK    2  A    between atoms: C2_2  and  C3_3 
REMARK    3  A    between atoms: C3_3  and  C4_4 
REMARK    4  A    between atoms: C4_4  and  C5_5 
REMARK    5  A    between atoms: C5_5  and  C6_6 
REMARK    6  A    between atoms: C6_6  and  C7_7 
REMARK    7  A    between atoms: C7_7  and  C8_8 
REMARK    8  A    between atoms: C8_8  and  C9_9 
REMARK    9  A    between atoms: C9_9  and  C10_10 
REMARK   10  A    between atoms: C10_10  and  C22_24 
REMARK   11  A    between atoms: C11_11  and  C12_12 
REMARK   12  A    between atoms: C12_12  and  C13_13 
REMARK   13  A    between atoms: C12_12  and  O2_20 
REMARK   14  A    between atoms: C13_13  and  C14_14 
REMARK   15  A    between atoms: C13_13  and  O1_19 
REMARK   16  A    between atoms: C14_14  and  C15_15 
REMARK   17  A    between atoms: C16_16  and  C17_17 
REMARK   18  A    between atoms: C17_17  and  C18_18 
REMARK   19  A    between atoms: C19_21  and  C20_22 
REMARK   20  A    between atoms: C22_24  and  O4_26 
ROOT
HETATM    1  C11 UNL     1      30.024  29.891  38.414  1.00  0.00     0.007 C 
ENDROOT
BRANCH   1   2
HETATM    2  C1  UNL     1      30.304  29.398  39.632  1.00  0.00    -0.001 C 
HETATM    3  C2  UNL     1      31.344  28.430  39.903  1.00  0.00    -0.000 C 
BRANCH   3   4
HETATM    4  C3  UNL     1      31.583  27.260  39.287  1.00  0.00    -0.000 C 
BRANCH   4   5
HETATM    5  C4  UNL     1      31.400  25.937  39.843  1.00  0.00    -0.004 C 
BRANCH   5   6
HETATM    6  C5  UNL     1      31.929  25.472  40.986  1.00  0.00    -0.023 C 
BRANCH   6   7
HETATM    7  C6  UNL     1      31.381  25.569  42.381  1.00  0.00     0.054 C 
BRANCH   7   8
HETATM    8  C7  UNL     1      31.975  26.748  43.098  1.00  0.00    -0.027 C 
BRANCH   8   9
HETATM    9  C8  UNL     1      33.161  27.339  42.883  1.00  0.00    -0.030 C 
BRANCH   9  10
HETATM   10  C9  UNL     1      34.493  26.954  43.463  1.00  0.00     0.037 C 
BRANCH  10  11
HETATM   11  C10 UNL     1      35.253  26.036  42.514  1.00  0.00     0.113 C 
BRANCH  11  12
HETATM   12  C22 UNL     1      36.016  26.827  41.490  1.00  0.00     0.139 C 
HETATM   13  O3  UNL     1      36.912  27.631  41.683  1.00  0.00    -0.650 OA
BRANCH  12  14
HETATM   14  O4  UNL     1      35.615  26.541  40.235  1.00  0.00    -0.776 OA
HETATM   15  H32 UNL     1      36.076  27.206  39.682  1.00  0.00     0.167 HD
ENDBRANCH  12  14
ENDBRANCH  11  12
ENDBRANCH  10  11
ENDBRANCH   9  10
ENDBRANCH   8   9
ENDBRANCH   7   8
ENDBRANCH   6   7
ENDBRANCH   5   6
ENDBRANCH   4   5
ENDBRANCH   3   4
ENDBRANCH   1   2
BRANCH   1  16
HETATM   16  C12 UNL     1      30.083  31.349  38.058  1.00  0.00     0.170 C 
BRANCH  16  17
HETATM   17  C13 UNL     1      29.826  32.307  39.247  1.00  0.00     0.154 C 
BRANCH  17  18
HETATM   18  C14 UNL     1      28.331  32.566  39.483  1.00  0.00     0.061 C 
BRANCH  18  19
HETATM   19  C15 UNL     1      27.914  32.240  40.893  1.00  0.00    -0.028 C 
HETATM   20  C16 UNL     1      27.207  31.177  41.317  1.00  0.00    -0.027 C 
BRANCH  20  21
HETATM   21  C17 UNL     1      26.690  30.024  40.504  1.00  0.00     0.053 C 
BRANCH  21  22
HETATM   22  C18 UNL     1      25.598  30.472  39.573  1.00  0.00    -0.027 C 
HETATM   23  C19 UNL     1      24.274  30.263  39.686  1.00  0.00    -0.031 C 
BRANCH  23  24
HETATM   24  C20 UNL     1      23.548  29.504  40.759  1.00  0.00     0.022 C 
HETATM   25  C21 UNL     1      22.313  28.802  40.207  1.00  0.00     0.009 C 
ENDBRANCH  23  24
ENDBRANCH  21  22
ENDBRANCH  20  21
ENDBRANCH  18  19
ENDBRANCH  17  18
BRANCH  17  26
HETATM   26  O1  UNL     1      30.512  33.551  39.017  1.00  0.00    -0.392 OA
HETATM   27  H29 UNL     1      29.905  34.236  39.361  1.00  0.00     0.210 HD
ENDBRANCH  17  26
ENDBRANCH  16  17
BRANCH  16  28
HETATM   28  O2  UNL     1      29.058  31.581  37.085  1.00  0.00    -0.389 OA
HETATM   29  H30 UNL     1      29.229  32.460  36.702  1.00  0.00     0.210 HD
ENDBRANCH  16  28
ENDBRANCH   1  16
TORSDOF 20
