REMARK  11 active torsions:
REMARK  status: ('A' for Active; 'I' for Inactive)
REMARK    1  A    between atoms: C5_5  and  C8_8 
REMARK    2  A    between atoms: C8_8  and  C9_9 
REMARK    3  A    between atoms: C8_8  and  C10_10 
REMARK    4  A    between atoms: C8_8  and  O2_31 
REMARK    5  A    between atoms: C10_10  and  C11_11 
REMARK    6  A    between atoms: C19_20  and  O1_23 
REMARK    7  A    between atoms: O1_23  and  C22_24 
REMARK    8  A    between atoms: C22_24  and  C23_25 
REMARK    9  A    between atoms: C23_25  and  N1_26 
REMARK   10  A    between atoms: N1_26  and  C24_27 
REMARK   11  A    between atoms: N1_26  and  C25_28 
ROOT
HETATM    1  C8  UNL     1      29.573  28.065  40.082  1.00  0.00     0.116 C 
ENDROOT
BRANCH   1   2
HETATM    2  C5  UNL     1      30.072  27.841  38.638  1.00  0.00    -0.019 A 
HETATM    3  C4  UNL     1      30.150  26.522  38.141  1.00  0.00     0.011 A 
HETATM    4  C3  UNL     1      30.578  26.259  36.837  1.00  0.00     0.007 A 
HETATM    5  C2  UNL     1      30.926  27.307  35.984  1.00  0.00    -0.062 A 
HETATM    6  C1  UNL     1      30.861  28.618  36.464  1.00  0.00     0.007 A 
HETATM    7  C7  UNL     1      31.420  27.028  34.595  1.00  0.00     0.048 C 
HETATM    8  C6  UNL     1      30.432  28.883  37.770  1.00  0.00     0.011 A 
ENDBRANCH   1   2
BRANCH   1   9
HETATM    9  C9  UNL     1      30.636  27.650  41.116  1.00  0.00    -0.019 A 
HETATM   10  C17 UNL     1      31.337  28.605  41.867  1.00  0.00     0.013 A 
HETATM   11  C18 UNL     1      32.342  28.218  42.757  1.00  0.00     0.037 A 
HETATM   12  C19 UNL     1      32.681  26.873  42.905  1.00  0.00     0.068 A 
HETATM   13  C20 UNL     1      31.973  25.908  42.192  1.00  0.00     0.037 A 
HETATM   14  C21 UNL     1      30.964  26.294  41.301  1.00  0.00     0.013 A 
BRANCH  12  15
HETATM   15  O1  UNL     1      33.704  26.632  43.778  1.00  0.00    -0.349 OA
BRANCH  15  16
HETATM   16  C22 UNL     1      34.755  27.600  43.865  1.00  0.00     0.206 C 
BRANCH  16  17
HETATM   17  C23 UNL     1      36.136  26.990  44.194  1.00  0.00     0.299 C 
BRANCH  17  18
HETATM   18  N1  UNL     1      36.857  26.399  43.041  1.00  0.00     0.089 N 
BRANCH  18  19
HETATM   19  C24 UNL     1      36.571  24.959  42.917  1.00  0.00     0.268 C 
HETATM   20  C27 UNL     1      36.329  24.197  44.217  1.00  0.00     0.037 C 
ENDBRANCH  18  19
BRANCH  18  21
HETATM   21  C25 UNL     1      36.630  27.167  41.805  1.00  0.00     0.268 C 
HETATM   22  C26 UNL     1      35.790  26.437  40.760  1.00  0.00     0.037 C 
ENDBRANCH  18  21
ENDBRANCH  17  18
ENDBRANCH  16  17
ENDBRANCH  15  16
ENDBRANCH  12  15
ENDBRANCH   1   9
BRANCH   1  23
HETATM   23  C10 UNL     1      29.111  29.534  40.374  1.00  0.00     0.086 C 
BRANCH  23  24
HETATM   24  C11 UNL     1      27.692  29.890  39.958  1.00  0.00    -0.055 A 
HETATM   25  C12 UNL     1      26.652  29.873  40.900  1.00  0.00     0.009 A 
HETATM   26  C13 UNL     1      25.343  30.174  40.518  1.00  0.00     0.024 A 
HETATM   27  C14 UNL     1      25.066  30.494  39.192  1.00  0.00     0.034 A 
HETATM   28  C15 UNL     1      26.088  30.522  38.246  1.00  0.00     0.024 A 
HETATM   29 CL1  UNL     1      23.451  30.855  38.721  1.00  0.00    -0.084 Cl
HETATM   30  C16 UNL     1      27.397  30.221  38.629  1.00  0.00     0.009 A 
ENDBRANCH  23  24
ENDBRANCH   1  23
BRANCH   1  31
HETATM   31  O2  UNL     1      28.403  27.229  40.212  1.00  0.00    -0.380 OA
HETATM   32  H32 UNL     1      27.704  27.616  39.659  1.00  0.00     0.211 HD
ENDBRANCH   1  31
TORSDOF 11
