REMARK  6 active torsions:
REMARK  status: ('A' for Active; 'I' for Inactive)
REMARK    1  A    between atoms: C4_4  and  C7_7 
REMARK    2  A    between atoms: C7_7  and  O1_8 
REMARK    3  A    between atoms: O1_8  and  C8_10 
REMARK    4  A    between atoms: C10_12  and  C25_30 
REMARK    5  A    between atoms: C19_22  and  C21_24 
REMARK    6  A    between atoms: C25_30  and  O7_32 
ROOT
HETATM    1  C8  UNL     1      31.222  27.772  37.103  1.00  0.00     0.203 C 
HETATM    2  C9  UNL     1      30.059  28.756  36.993  1.00  0.00     0.056 C 
HETATM    3  C10 UNL     1      30.013  29.727  38.191  1.00  0.00     0.097 C 
HETATM    4  C11 UNL     1      29.899  28.969  39.573  1.00  0.00    -0.020 C 
HETATM    5  C12 UNL     1      31.138  28.005  39.664  1.00  0.00     0.076 C 
HETATM    6  C13 UNL     1      31.124  27.059  38.458  1.00  0.00     0.162 C 
HETATM    7  C14 UNL     1      29.973  29.982  40.747  1.00  0.00     0.011 C 
HETATM    8  C15 UNL     1      30.245  29.343  42.113  1.00  0.00     0.016 C 
HETATM    9  C16 UNL     1      31.524  28.499  42.090  1.00  0.00     0.094 C 
HETATM   10  C17 UNL     1      31.451  27.355  41.057  1.00  0.00    -0.018 C 
HETATM   11  C18 UNL     1      31.924  28.005  43.467  1.00  0.00     0.264 C 
HETATM   12  O3  UNL     1      32.985  27.168  43.505  1.00  0.00    -0.311 OA
HETATM   13  C19 UNL     1      33.326  26.267  42.426  1.00  0.00     0.167 C 
HETATM   14  C20 UNL     1      32.877  26.753  41.040  1.00  0.00     0.048 C 
HETATM   15  O5  UNL     1      31.406  28.415  44.500  1.00  0.00    -0.265 OA
HETATM   16  O8  UNL     1      31.033  25.839  38.562  1.00  0.00    -0.295 OA
HETATM   17  C27 UNL     1      28.539  28.233  39.638  1.00  0.00     0.017 C 
HETATM   18  C28 UNL     1      30.449  26.257  41.485  1.00  0.00     0.017 C 
ENDROOT
BRANCH   1  19
HETATM   19  O1  UNL     1      31.149  26.864  36.003  1.00  0.00    -0.304 OA
BRANCH  19  20
HETATM   20  C7  UNL     1      31.319  27.451  34.790  1.00  0.00     0.294 C 
HETATM   21  O2  UNL     1      32.361  27.945  34.386  1.00  0.00    -0.259 OA
BRANCH  20  22
HETATM   22  C4  UNL     1      30.052  27.438  34.011  1.00  0.00     0.039 A 
HETATM   23  C3  UNL     1      29.497  28.669  33.633  1.00  0.00     0.017 A 
HETATM   24  C2  UNL     1      28.307  28.710  32.903  1.00  0.00     0.001 A 
HETATM   25  C1  UNL     1      27.666  27.524  32.548  1.00  0.00     0.000 A 
HETATM   26  C6  UNL     1      28.215  26.296  32.917  1.00  0.00     0.001 A 
HETATM   27  C5  UNL     1      29.404  26.250  33.647  1.00  0.00     0.017 A 
ENDBRANCH  20  22
ENDBRANCH  19  20
ENDBRANCH   1  19
BRANCH   3  28
HETATM   28  C25 UNL     1      28.972  30.828  38.000  1.00  0.00     0.263 C 
HETATM   29  O6  UNL     1      29.060  31.927  38.531  1.00  0.00    -0.265 OA
BRANCH  28  30
HETATM   30  O7  UNL     1      27.942  30.430  37.207  1.00  0.00    -0.326 OA
HETATM   31  C26 UNL     1      26.654  30.844  37.666  1.00  0.00     0.213 C 
ENDBRANCH  28  30
ENDBRANCH   3  28
BRANCH  13  32
HETATM   32  C21 UNL     1      34.799  25.973  42.442  1.00  0.00    -0.005 A 
HETATM   33  C22 UNL     1      35.736  26.379  41.511  1.00  0.00     0.151 A 
HETATM   34  O4  UNL     1      36.974  25.932  41.841  1.00  0.00    -0.334 OA
HETATM   35  C23 UNL     1      36.845  25.227  42.993  1.00  0.00     0.142 A 
HETATM   36  C24 UNL     1      35.533  25.223  43.407  1.00  0.00     0.036 A 
ENDBRANCH  13  32
TORSDOF 6
