REMARK  6 active torsions:
REMARK  status: ('A' for Active; 'I' for Inactive)
REMARK    1  A    between atoms: C3_3  and  C7_7 
REMARK    2  A    between atoms: C7_7  and  N1_8 
REMARK    3  A    between atoms: C7_7  and  C8_9 
REMARK    4  A    between atoms: N2_17  and  C18_20 
REMARK    5  A    between atoms: C18_20  and  C19_21 
REMARK    6  A    between atoms: C20_22  and  C21_23 
ROOT
HETATM    1  N1  UNL     1      30.959  28.495  39.022  1.00  0.00     0.105 N 
HETATM    2  C14 UNL     1      31.635  28.570  40.341  1.00  0.00     0.304 C 
HETATM    3  C15 UNL     1      30.868  27.904  41.506  1.00  0.00     0.303 C 
HETATM    4  N2  UNL     1      30.563  26.473  41.304  1.00  0.00     0.095 N 
HETATM    5  C16 UNL     1      30.497  26.156  39.857  1.00  0.00     0.303 C 
HETATM    6  C17 UNL     1      30.012  27.350  39.006  1.00  0.00     0.304 C 
ENDROOT
BRANCH   1   7
HETATM    7  C7  UNL     1      30.278  29.773  38.658  1.00  0.00     0.289 C 
BRANCH   7   8
HETATM    8  C3  UNL     1      29.128  30.145  39.605  1.00  0.00    -0.021 A 
HETATM    9  C2  UNL     1      27.957  29.372  39.681  1.00  0.00     0.010 A 
HETATM   10  C1  UNL     1      26.918  29.733  40.540  1.00  0.00     0.001 A 
HETATM   11  C6  UNL     1      27.032  30.872  41.334  1.00  0.00     0.000 A 
HETATM   12  C5  UNL     1      28.185  31.652  41.269  1.00  0.00     0.001 A 
HETATM   13  C4  UNL     1      29.226  31.294  40.410  1.00  0.00     0.010 A 
ENDBRANCH   7   8
BRANCH   7  14
HETATM   14  C8  UNL     1      29.769  29.803  37.208  1.00  0.00    -0.021 A 
HETATM   15  C9  UNL     1      30.376  28.984  36.240  1.00  0.00     0.010 A 
HETATM   16  C10 UNL     1      29.943  29.006  34.913  1.00  0.00     0.001 A 
HETATM   17  C11 UNL     1      28.901  29.850  34.532  1.00  0.00     0.000 A 
HETATM   18  C12 UNL     1      28.295  30.676  35.477  1.00  0.00     0.001 A 
HETATM   19  C13 UNL     1      28.727  30.656  36.803  1.00  0.00     0.010 A 
ENDBRANCH   7  14
ENDBRANCH   1   7
BRANCH   4  20
HETATM   20  C18 UNL     1      31.536  25.610  41.985  1.00  0.00     0.300 C 
BRANCH  20  21
HETATM   21  C19 UNL     1      32.783  26.295  42.488  1.00  0.00     0.004 C 
HETATM   22  C20 UNL     1      34.052  25.926  42.247  1.00  0.00     0.009 C 
BRANCH  22  23
HETATM   23  C21 UNL     1      35.233  26.634  42.759  1.00  0.00    -0.036 A 
HETATM   24  C22 UNL     1      36.260  26.968  41.866  1.00  0.00     0.011 A 
HETATM   25  C23 UNL     1      37.412  27.619  42.315  1.00  0.00     0.001 A 
HETATM   26  C24 UNL     1      37.554  27.932  43.665  1.00  0.00     0.000 A 
HETATM   27  C25 UNL     1      36.548  27.590  44.566  1.00  0.00     0.001 A 
HETATM   28  C26 UNL     1      35.395  26.941  44.116  1.00  0.00     0.011 A 
ENDBRANCH  22  23
ENDBRANCH  20  21
ENDBRANCH   4  20
TORSDOF 6
