REMARK  4 active torsions:
REMARK  status: ('A' for Active; 'I' for Inactive)
REMARK    1  A    between atoms: C1_2  and  C6_8 
REMARK       I    between atoms: C6_8  and  N2_9 
REMARK    2  A    between atoms: N2_9  and  C7_11 
REMARK    3  A    between atoms: C9_13  and  C13_18 
REMARK    4  A    between atoms: C15_22  and  N5_24 
ROOT
HETATM    1  C7  UNL     1      32.239  27.392  40.825  1.00  0.00     0.035 A 
HETATM    2  C8  UNL     1      31.464  28.530  40.506  1.00  0.00     0.042 A 
HETATM    3  C9  UNL     1      30.298  28.428  39.721  1.00  0.00     0.014 A 
HETATM    4  C10 UNL     1      29.900  27.130  39.335  1.00  0.00     0.125 A 
HETATM    5  C11 UNL     1      30.640  25.989  39.677  1.00  0.00     0.045 A 
HETATM    6  C12 UNL     1      31.819  26.122  40.410  1.00  0.00     0.032 A 
HETATM    7  F2  UNL     1      28.810  26.959  38.576  1.00  0.00    -0.205 F 
ENDROOT
BRANCH   3   8
HETATM    8  C13 UNL     1      29.543  29.691  39.224  1.00  0.00     0.113 C 
HETATM    9  C14 UNL     1      28.111  29.558  39.723  1.00  0.00     0.202 C 
HETATM   10  S1  UNL     1      27.083  30.870  39.138  1.00  0.00     0.248 S 
HETATM   11  N3  UNL     1      27.621  31.107  37.579  1.00  0.00    -0.111 N 
HETATM   12  O2  UNL     1      27.355  32.072  39.878  1.00  0.00    -0.205 OA
HETATM   13  O3  UNL     1      25.729  30.370  39.045  1.00  0.00    -0.205 OA
HETATM   14  C15 UNL     1      28.738  30.428  37.074  1.00  0.00     0.705 C 
HETATM   15  C16 UNL     1      26.737  32.009  36.804  1.00  0.00     0.189 C 
HETATM   16  N4  UNL     1      29.576  29.750  37.755  1.00  0.00    -0.090 NA
HETATM   17  C17 UNL     1      30.284  30.948  39.724  1.00  0.00     0.048 C 
BRANCH  14  18
HETATM   18  N5  UNL     1      28.913  30.514  35.734  1.00  0.00    -0.232 N 
HETATM   19  H10 UNL     1      28.256  31.003  35.163  1.00  0.00     0.174 HD
HETATM   20  H11 UNL     1      29.413  29.749  35.298  1.00  0.00     0.174 HD
ENDBRANCH  14  18
ENDBRANCH   3   8
BRANCH   1  21
HETATM   21  N2  UNL     1      33.430  27.608  41.544  1.00  0.00    -0.322 N 
HETATM   22  C6  UNL     1      33.539  27.961  42.877  1.00  0.00     0.274 C 
HETATM   23  O1  UNL     1      32.620  28.156  43.683  1.00  0.00    -0.266 OA
HETATM   24  H4  UNL     1      34.299  27.361  41.097  1.00  0.00     0.169 HD
BRANCH  22  25
HETATM   25  C1  UNL     1      34.957  28.018  43.346  1.00  0.00     0.124 A 
HETATM   26  N1  UNL     1      35.882  28.495  42.441  1.00  0.00    -0.252 NA
HETATM   27  C5  UNL     1      37.154  28.596  42.897  1.00  0.00     0.159 A 
HETATM   28  C4  UNL     1      37.552  28.173  44.158  1.00  0.00     0.133 A 
HETATM   29  C3  UNL     1      36.606  27.593  45.016  1.00  0.00     0.046 A 
HETATM   30  F1  UNL     1      38.827  28.289  44.540  1.00  0.00    -0.205 F 
HETATM   31  C2  UNL     1      35.277  27.540  44.608  1.00  0.00     0.040 A 
ENDBRANCH  22  25
ENDBRANCH   1  21
TORSDOF 4
