REMARK  3 active torsions:
REMARK  status: ('A' for Active; 'I' for Inactive)
REMARK    1  A    between atoms: C2_3  and  N5_15 
REMARK    2  A    between atoms: C5_7  and  C11_16 
REMARK    3  A    between atoms: N4_9  and  C6_10 
ROOT
HETATM    1  C1  UNL     1      31.666  23.784  39.870  1.00  0.00     0.237 A 
HETATM    2  N1  UNL     1      30.931  23.969  38.756  1.00  0.00    -0.229 NA
HETATM    3  C2  UNL     1      30.554  25.223  38.430  1.00  0.00     0.118 A 
HETATM    4  C3  UNL     1      30.954  26.284  39.256  1.00  0.00     0.083 A 
HETATM    5  C4  UNL     1      31.689  25.943  40.380  1.00  0.00     0.163 A 
HETATM    6  N2  UNL     1      32.079  24.710  40.747  1.00  0.00    -0.222 NA
HETATM    7  C5  UNL     1      30.832  27.706  39.320  1.00  0.00     0.106 A 
HETATM    8  N3  UNL     1      31.382  28.191  40.447  1.00  0.00    -0.169 NA
HETATM    9  N4  UNL     1      31.929  27.112  41.047  1.00  0.00    -0.246 N 
ENDROOT
BRANCH   7  10
HETATM   10  C11 UNL     1      30.208  28.619  38.369  1.00  0.00     0.014 A 
HETATM   11  C12 UNL     1      30.674  28.697  37.054  1.00  0.00     0.133 A 
HETATM   12  N6  UNL     1      30.192  29.508  36.075  1.00  0.00    -0.242 NA
HETATM   13  C13 UNL     1      29.154  30.255  36.491  1.00  0.00     0.137 A 
HETATM   14  C14 UNL     1      28.572  30.272  37.754  1.00  0.00     0.012 A 
HETATM   15  N7  UNL     1      28.477  31.146  35.703  1.00  0.00    -0.350 N 
HETATM   16  C15 UNL     1      29.113  29.416  38.728  1.00  0.00     0.030 A 
HETATM   17  C17 UNL     1      27.511  31.215  37.706  1.00  0.00     0.032 A 
HETATM   18  C16 UNL     1      27.476  31.741  36.431  1.00  0.00     0.090 A 
HETATM   19  H15 UNL     1      28.698  31.313  34.734  1.00  0.00     0.166 HD
ENDBRANCH   7  10
BRANCH   3  20
HETATM   20  N5  UNL     1      29.763  25.348  37.298  1.00  0.00    -0.286 NA
HETATM   21  H11 UNL     1      29.431  24.477  36.901  1.00  0.00     0.125 HD
HETATM   22  H12 UNL     1      30.185  25.995  36.639  1.00  0.00     0.125 HD
ENDBRANCH   3  20
BRANCH   9  23
HETATM   23  C6  UNL     1      32.647  27.240  42.296  1.00  0.00     0.112 C 
HETATM   24  C7  UNL     1      34.147  27.515  42.174  1.00  0.00     0.027 C 
HETATM   25  C8  UNL     1      34.542  28.015  43.560  1.00  0.00     0.002 C 
HETATM   26  C9  UNL     1      33.275  28.619  44.174  1.00  0.00     0.002 C 
HETATM   27  C10 UNL     1      32.162  28.410  43.151  1.00  0.00     0.027 C 
ENDBRANCH   9  23
TORSDOF 3
