REMARK  4 active torsions:
REMARK  status: ('A' for Active; 'I' for Inactive)
REMARK       I    between atoms: N2_5  and  C6_8 
REMARK    1  A    between atoms: C6_8  and  C7_10 
REMARK    2  A    between atoms: C10_13  and  N3_17 
REMARK    3  A    between atoms: N3_17  and  C13_18 
REMARK    4  A    between atoms: C14_20  and  C17_24 
ROOT
HETATM    1  C7  UNL     1      31.842  27.493  41.120  1.00  0.00     0.054 A 
HETATM    2  C8  UNL     1      31.131  28.430  41.868  1.00  0.00     0.051 A 
HETATM    3  C9  UNL     1      30.441  29.456  41.211  1.00  0.00     0.054 A 
HETATM    4  C10 UNL     1      30.453  29.570  39.809  1.00  0.00     0.051 A 
HETATM    5  C11 UNL     1      31.199  28.633  39.085  1.00  0.00     0.031 A 
HETATM    6  C12 UNL     1      31.893  27.603  39.729  1.00  0.00     0.021 A 
HETATM    7 CL1  UNL     1      31.073  28.389  43.593  1.00  0.00    -0.083 Cl
ENDROOT
BRANCH   4   8
HETATM    8  N3  UNL     1      29.757  30.631  39.220  1.00  0.00    -0.188 N 
HETATM    9  H15 UNL     1      29.991  31.566  39.524  1.00  0.00     0.184 HD
BRANCH   8  10
HETATM   10  C13 UNL     1      28.699  30.714  38.319  1.00  0.00     0.727 A 
HETATM   11  N4  UNL     1      27.425  30.608  38.710  1.00  0.00    -0.062 NA
HETATM   12  C14 UNL     1      26.460  30.694  37.768  1.00  0.00     0.094 A 
HETATM   13  C15 UNL     1      26.750  30.878  36.434  1.00  0.00     0.053 A 
HETATM   14  C16 UNL     1      28.082  30.971  36.125  1.00  0.00     0.139 A 
HETATM   15  N5  UNL     1      29.064  30.893  37.040  1.00  0.00    -0.075 NA
BRANCH  12  16
HETATM   16  C17 UNL     1      25.093  30.554  38.301  1.00  0.00     0.034 A 
HETATM   17  C18 UNL     1      23.894  30.671  37.615  1.00  0.00     0.021 A 
HETATM   18  C19 UNL     1      22.752  30.465  38.441  1.00  0.00     0.008 A 
HETATM   19  C20 UNL     1      23.105  30.187  39.740  1.00  0.00     0.050 A 
HETATM   20  S1  UNL     1      24.800  30.177  39.954  1.00  0.00    -0.100 SA
ENDBRANCH  12  16
ENDBRANCH   8  10
ENDBRANCH   4   8
BRANCH   1  21
HETATM   21  C6  UNL     1      32.591  26.394  41.749  1.00  0.00     0.255 C 
HETATM   22  N2  UNL     1      33.725  26.705  42.485  1.00  0.00    -0.345 N 
HETATM   23  C3  UNL     1      34.518  25.611  43.048  1.00  0.00     0.156 C 
HETATM   24  C4  UNL     1      34.193  28.063  42.790  1.00  0.00     0.156 C 
HETATM   25  C2  UNL     1      35.991  26.010  43.259  1.00  0.00     0.291 C 
HETATM   26  N1  UNL     1      36.205  27.232  44.063  1.00  0.00     0.087 N 
HETATM   27  C1  UNL     1      35.012  28.101  44.093  1.00  0.00     0.291 C 
HETATM   28  C5  UNL     1      36.654  26.921  45.416  1.00  0.00     0.310 C 
HETATM   29  O1  UNL     1      32.150  25.255  41.616  1.00  0.00    -0.267 OA
ENDBRANCH   1  21
TORSDOF 4
