REMARK  4 active torsions:
REMARK  status: ('A' for Active; 'I' for Inactive)
REMARK    1  A    between atoms: C1_1  and  O2_15 
REMARK    2  A    between atoms: C12_13  and  O3_16 
REMARK    3  A    between atoms: C18_22  and  C21_26 
REMARK    4  A    between atoms: C21_26  and  O6_27 
ROOT
HETATM    1  C1  UNL     1      29.457  31.855  40.278  1.00  0.00     0.068 A 
HETATM    2  C2  UNL     1      29.144  31.058  41.372  1.00  0.00     0.037 A 
HETATM    3  C3  UNL     1      29.376  29.681  41.307  1.00  0.00     0.016 A 
HETATM    4  C4  UNL     1      29.915  29.096  40.146  1.00  0.00     0.020 A 
HETATM    5  C5  UNL     1      30.208  29.923  39.055  1.00  0.00     0.088 A 
HETATM    6  C6  UNL     1      29.990  31.300  39.123  1.00  0.00     0.074 A 
HETATM    7  C7  UNL     1      30.241  27.618  40.051  1.00  0.00     0.159 A 
HETATM    8  C8  UNL     1      30.362  27.155  38.612  1.00  0.00     0.020 A 
HETATM    9  C9  UNL     1      30.627  28.104  37.618  1.00  0.00     0.088 A 
HETATM   10  O1  UNL     1      30.725  29.451  37.873  1.00  0.00    -0.309 OA
HETATM   11  C10 UNL     1      30.270  25.800  38.242  1.00  0.00     0.016 A 
HETATM   12  C11 UNL     1      30.444  25.410  36.910  1.00  0.00     0.037 A 
HETATM   13  C12 UNL     1      30.720  26.374  35.946  1.00  0.00     0.068 A 
HETATM   14  C13 UNL     1      30.815  27.716  36.290  1.00  0.00     0.074 A 
HETATM   15  C14 UNL     1      31.442  27.249  40.869  1.00  0.00     0.004 A 
HETATM   16  C15 UNL     1      31.058  26.373  41.865  1.00  0.00     0.049 A 
HETATM   17  C16 UNL     1      29.628  26.131  41.755  1.00  0.00     0.295 A 
HETATM   18  O4  UNL     1      29.178  26.863  40.696  1.00  0.00    -0.291 OA
HETATM   19  C17 UNL     1      32.770  27.642  40.758  1.00  0.00     0.030 A 
HETATM   20  C18 UNL     1      33.704  27.132  41.676  1.00  0.00     0.038 A 
HETATM   21  C19 UNL     1      33.288  26.238  42.687  1.00  0.00     0.019 A 
HETATM   22  C20 UNL     1      31.949  25.851  42.786  1.00  0.00     0.019 A 
HETATM   23  O5  UNL     1      28.965  25.411  42.473  1.00  0.00    -0.259 OA
ENDROOT
BRANCH  20  24
HETATM   24  C21 UNL     1      35.117  27.561  41.545  1.00  0.00     0.176 C 
HETATM   25  O7  UNL     1      35.950  27.055  40.817  1.00  0.00    -0.646 OA
BRANCH  24  26
HETATM   26  O6  UNL     1      35.420  28.604  42.337  1.00  0.00    -0.773 OA
HETATM   27  H12 UNL     1      35.646  28.189  43.197  1.00  0.00     0.167 HD
ENDBRANCH  24  26
ENDBRANCH  20  24
BRANCH   1  28
HETATM   28  O2  UNL     1      29.252  33.203  40.300  1.00  0.00    -0.361 OA
HETATM   29  H7  UNL     1      28.549  33.425  39.668  1.00  0.00     0.217 HD
ENDBRANCH   1  28
BRANCH  13  30
HETATM   30  O3  UNL     1      30.902  26.037  34.638  1.00  0.00    -0.361 OA
HETATM   31  H8  UNL     1      30.259  25.350  34.399  1.00  0.00     0.217 HD
ENDBRANCH  13  30
TORSDOF 4
