REMARK  6 active torsions:
REMARK  status: ('A' for Active; 'I' for Inactive)
REMARK    1  A    between atoms: C17_17  and  C18_20 
REMARK    2  A    between atoms: N1_18  and  O1_19 
REMARK    3  A    between atoms: C18_20  and  C19_21 
REMARK    4  A    between atoms: C19_21  and  C20_22 
REMARK    5  A    between atoms: C20_22  and  C21_23 
REMARK    6  A    between atoms: C21_23  and  C22_24 
ROOT
HETATM    1  C1  UNL     1      35.309  25.447  41.642  1.00  0.00     0.062 C 
HETATM    2  C2  UNL     1      35.599  25.976  43.036  1.00  0.00     0.061 C 
HETATM    3  C3  UNL     1      34.726  27.041  43.589  1.00  0.00     0.033 C 
HETATM    4  C4  UNL     1      33.588  27.413  42.975  1.00  0.00    -0.069 C 
HETATM    5  C5  UNL     1      33.093  26.754  41.685  1.00  0.00    -0.016 C 
HETATM    6  C6  UNL     1      34.336  26.330  40.862  1.00  0.00     0.020 C 
HETATM    7  C7  UNL     1      32.812  28.599  43.505  1.00  0.00     0.035 C 
HETATM    8  C8  UNL     1      31.319  28.555  43.198  1.00  0.00     0.010 C 
HETATM    9  C9  UNL     1      30.983  28.240  41.726  1.00  0.00    -0.004 C 
HETATM   10  C10 UNL     1      32.240  27.811  40.906  1.00  0.00     0.002 C 
HETATM   11  C11 UNL     1      30.297  29.386  40.971  1.00  0.00    -0.002 C 
HETATM   12  C12 UNL     1      29.792  28.964  39.559  1.00  0.00    -0.036 C 
HETATM   13  C13 UNL     1      31.032  28.526  38.755  1.00  0.00     0.010 C 
HETATM   14  C14 UNL     1      31.844  27.422  39.465  1.00  0.00     0.007 C 
HETATM   15  C15 UNL     1      29.085  30.054  41.600  1.00  0.00     0.006 C 
HETATM   16  C16 UNL     1      28.399  30.759  40.423  1.00  0.00     0.006 C 
HETATM   17  C17 UNL     1      29.116  30.305  39.121  1.00  0.00    -0.002 C 
HETATM   18  N1  UNL     1      36.573  25.541  43.786  1.00  0.00    -0.141 NA
HETATM   19  C26 UNL     1      32.264  25.494  42.033  1.00  0.00     0.020 C 
HETATM   20  C27 UNL     1      28.753  27.814  39.582  1.00  0.00     0.016 C 
ENDROOT
BRANCH  17  21
HETATM   21  C18 UNL     1      28.173  30.328  37.878  1.00  0.00    -0.014 C 
HETATM   22  C25 UNL     1      28.906  30.792  36.610  1.00  0.00     0.010 C 
BRANCH  21  23
HETATM   23  C19 UNL     1      26.947  31.266  38.079  1.00  0.00     0.005 C 
BRANCH  23  24
HETATM   24  C20 UNL     1      25.611  30.539  38.284  1.00  0.00     0.001 C 
BRANCH  24  25
HETATM   25  C21 UNL     1      24.596  30.932  37.202  1.00  0.00     0.004 C 
BRANCH  25  26
HETATM   26  C22 UNL     1      23.132  30.756  37.648  1.00  0.00    -0.023 C 
HETATM   27  C23 UNL     1      23.018  30.292  39.102  1.00  0.00     0.009 C 
HETATM   28  C24 UNL     1      22.370  32.071  37.465  1.00  0.00     0.009 C 
ENDBRANCH  25  26
ENDBRANCH  24  25
ENDBRANCH  23  24
ENDBRANCH  21  23
ENDBRANCH  17  21
BRANCH  18  29
HETATM   29  O1  UNL     1      37.299  24.526  43.152  1.00  0.00    -0.266 OA
HETATM   30  H22 UNL     1      37.630  24.978  42.353  1.00  0.00     0.247 HD
ENDBRANCH  18  29
TORSDOF 6
