REMARK  2 active torsions:
REMARK  status: ('A' for Active; 'I' for Inactive)
REMARK    1  A    between atoms: C6_7  and  C11_12 
REMARK    2  A    between atoms: C13_15  and  C14_16 
ROOT
HETATM    1  C1  UNL     1      28.937  29.062  39.761  1.00  0.00    -0.016 A 
HETATM    2  C2  UNL     1      29.153  30.331  39.199  1.00  0.00    -0.045 A 
HETATM    3  C3  UNL     1      30.430  30.593  38.446  1.00  0.00     0.060 C 
HETATM    4  C4  UNL     1      30.500  29.768  37.160  1.00  0.00     0.136 C 
HETATM    5  N1  UNL     1      30.540  28.314  37.250  1.00  0.00    -0.327 N 
HETATM    6  C5  UNL     1      30.335  27.489  38.345  1.00  0.00     0.141 A 
HETATM    7  C6  UNL     1      29.989  28.023  39.632  1.00  0.00     0.023 C 
HETATM    8  C7  UNL     1      28.168  31.319  39.324  1.00  0.00     0.008 A 
HETATM    9  C8  UNL     1      26.974  31.042  39.990  1.00  0.00     0.001 A 
HETATM   10  C9  UNL     1      26.750  29.776  40.530  1.00  0.00     0.001 A 
HETATM   11  C10 UNL     1      27.727  28.787  40.413  1.00  0.00     0.013 A 
HETATM   12  N2  UNL     1      30.490  26.224  37.992  1.00  0.00    -0.240 NA
HETATM   13  C12 UNL     1      30.764  26.219  36.659  1.00  0.00     0.151 A 
HETATM   14  C13 UNL     1      30.792  27.499  36.153  1.00  0.00     0.091 A 
ENDROOT
BRANCH   7  15
HETATM   15  C11 UNL     1      30.663  27.611  40.742  1.00  0.00    -0.062 C 
HETATM   16  C15 UNL     1      31.250  28.562  41.782  1.00  0.00     0.065 C 
HETATM   17  C16 UNL     1      32.595  28.034  42.306  1.00  0.00     0.276 C 
HETATM   18  N3  UNL     1      32.474  26.754  43.023  1.00  0.00     0.084 N 
HETATM   19  C17 UNL     1      31.355  25.932  42.535  1.00  0.00     0.276 C 
HETATM   20  C19 UNL     1      33.740  26.025  42.998  1.00  0.00     0.309 C 
HETATM   21  C18 UNL     1      30.983  26.152  41.057  1.00  0.00     0.065 C 
ENDBRANCH   7  15
BRANCH  14  22
HETATM   22  C14 UNL     1      31.024  27.900  34.791  1.00  0.00     0.289 C 
HETATM   23  O1  UNL     1      30.151  28.202  33.982  1.00  0.00    -0.300 OA
ENDBRANCH  14  22
TORSDOF 2
