REMARK  7 active torsions:
REMARK  status: ('A' for Active; 'I' for Inactive)
REMARK    1  A    between atoms: C1_1  and  O1_10 
REMARK    2  A    between atoms: C7_8  and  S1_14 
REMARK    3  A    between atoms: O1_10  and  C8_11 
REMARK    4  A    between atoms: S1_14  and  C9_15 
REMARK    5  A    between atoms: C9_15  and  C10_17 
REMARK    6  A    between atoms: C11_18  and  O3_23 
REMARK    7  A    between atoms: C12_19  and  O4_25 
ROOT
HETATM    1  C1  UNL     1      36.296  27.246  42.760  1.00  0.00     0.077 A 
HETATM    2  C2  UNL     1      35.490  27.808  43.757  1.00  0.00     0.039 A 
HETATM    3  C3  UNL     1      34.098  27.867  43.608  1.00  0.00     0.037 A 
HETATM    4  C4  UNL     1      33.516  27.348  42.443  1.00  0.00     0.086 A 
HETATM    5  C5  UNL     1      34.336  26.774  41.478  1.00  0.00     0.066 A 
HETATM    6  C6  UNL     1      35.724  26.696  41.603  1.00  0.00     0.069 A 
HETATM    7  N1  UNL     1      32.195  27.311  42.062  1.00  0.00    -0.221 NA
HETATM    8  C7  UNL     1      32.203  26.723  40.884  1.00  0.00     0.198 A 
HETATM    9  N2  UNL     1      33.468  26.365  40.502  1.00  0.00    -0.331 N 
HETATM   10  H4  UNL     1      33.695  25.914  39.625  1.00  0.00     0.168 HD
ENDROOT
BRANCH   8  11
HETATM   11  S1  UNL     1      30.755  26.414  39.856  1.00  0.00     0.092 S 
HETATM   12  O2  UNL     1      31.105  25.172  39.082  1.00  0.00    -0.249 OA
BRANCH  11  13
HETATM   13  C9  UNL     1      30.947  27.869  38.780  1.00  0.00     0.179 C 
BRANCH  13  14
HETATM   14  C10 UNL     1      29.768  28.810  38.853  1.00  0.00     0.082 A 
HETATM   15  C11 UNL     1      29.618  29.837  37.913  1.00  0.00     0.127 A 
HETATM   16  C12 UNL     1      28.561  30.749  38.061  1.00  0.00     0.104 A 
HETATM   17  C13 UNL     1      27.665  30.569  39.112  1.00  0.00     0.059 A 
HETATM   18  C14 UNL     1      27.886  29.531  40.000  1.00  0.00     0.120 A 
HETATM   19  N3  UNL     1      28.920  28.671  39.908  1.00  0.00    -0.262 NA
BRANCH  15  20
HETATM   20  O3  UNL     1      30.569  29.959  36.929  1.00  0.00    -0.351 OA
HETATM   21  C15 UNL     1      30.224  29.232  35.752  1.00  0.00     0.210 C 
ENDBRANCH  15  20
BRANCH  16  22
HETATM   22  O4  UNL     1      28.493  31.773  37.153  1.00  0.00    -0.353 OA
HETATM   23  C16 UNL     1      27.208  32.120  36.649  1.00  0.00     0.210 C 
ENDBRANCH  16  22
ENDBRANCH  13  14
ENDBRANCH  11  13
ENDBRANCH   8  11
BRANCH   1  24
HETATM   24  O1  UNL     1      37.662  27.149  42.807  1.00  0.00    -0.290 OA
BRANCH  24  25
HETATM   25  C8  UNL     1      38.370  28.371  42.931  1.00  0.00     0.505 C 
HETATM   26  F1  UNL     1      39.499  28.260  42.188  1.00  0.00    -0.184 F 
HETATM   27  F2  UNL     1      38.766  28.526  44.217  1.00  0.00    -0.184 F 
ENDBRANCH  24  25
ENDBRANCH   1  24
TORSDOF 7
