REMARK  13 active torsions:
REMARK  status: ('A' for Active; 'I' for Inactive)
REMARK    1  A    between atoms: C1_1  and  C6_7 
REMARK    2  A    between atoms: C2_3  and  C7_8 
REMARK    3  A    between atoms: C3_4  and  O3_10 
REMARK    4  A    between atoms: C4_5  and  O2_9 
REMARK    5  A    between atoms: C5_6  and  O4_11 
REMARK    6  A    between atoms: C7_8  and  O7_32 
REMARK    7  A    between atoms: C11_15  and  C13_18 
REMARK    8  A    between atoms: C13_18  and  C14_19 
REMARK    9  A    between atoms: C17_22  and  O5_25 
REMARK   10  A    between atoms: O5_25  and  C20_26 
REMARK   11  A    between atoms: C20_26  and  C21_27 
REMARK   12  A    between atoms: C21_27  and  O6_28 
REMARK   13  A    between atoms: O6_28  and  C22_29 
ROOT
HETATM    1  C6  UNL     1      29.383  28.387  39.460  1.00  0.00    -0.026 A 
HETATM    2  C8  UNL     1      29.646  27.667  38.288  1.00  0.00     0.011 A 
HETATM    3  C9  UNL     1      30.275  26.422  38.351  1.00  0.00     0.025 A 
HETATM    4  C10 UNL     1      30.648  25.876  39.582  1.00  0.00     0.040 A 
HETATM    5  C11 UNL     1      30.394  26.570  40.773  1.00  0.00    -0.032 A 
HETATM    6  C12 UNL     1      29.761  27.825  40.693  1.00  0.00     0.019 A 
HETATM    7 CL1  UNL     1      31.403  24.323  39.564  1.00  0.00    -0.084 Cl
ENDROOT
BRANCH   1   8
HETATM    8  C1  UNL     1      28.686  29.736  39.396  1.00  0.00     0.186 C 
HETATM    9  O1  UNL     1      27.809  29.707  38.261  1.00  0.00    -0.368 OA
HETATM   10  C2  UNL     1      27.050  30.924  38.115  1.00  0.00     0.177 C 
HETATM   11  C3  UNL     1      27.990  32.113  37.892  1.00  0.00     0.180 C 
HETATM   12  C4  UNL     1      28.969  32.210  39.065  1.00  0.00     0.181 C 
HETATM   13  C5  UNL     1      29.710  30.888  39.280  1.00  0.00     0.182 C 
BRANCH  10  14
HETATM   14  C7  UNL     1      26.097  30.726  36.930  1.00  0.00     0.198 C 
BRANCH  14  15
HETATM   15  O7  UNL     1      24.934  31.536  37.115  1.00  0.00    -0.398 OA
HETATM   16  H29 UNL     1      25.094  32.041  37.935  1.00  0.00     0.209 HD
ENDBRANCH  14  15
ENDBRANCH  10  14
BRANCH  11  17
HETATM   17  O3  UNL     1      27.264  33.338  37.787  1.00  0.00    -0.390 OA
HETATM   18  H9  UNL     1      26.327  33.074  37.676  1.00  0.00     0.210 HD
ENDBRANCH  11  17
BRANCH  12  19
HETATM   19  O2  UNL     1      29.911  33.264  38.802  1.00  0.00    -0.390 OA
HETATM   20  H8  UNL     1      29.896  33.825  39.604  1.00  0.00     0.210 HD
ENDBRANCH  12  19
BRANCH  13  21
HETATM   21  O4  UNL     1      30.515  31.033  40.461  1.00  0.00    -0.390 OA
HETATM   22  H10 UNL     1      30.643  30.137  40.831  1.00  0.00     0.210 HD
ENDBRANCH  13  21
ENDBRANCH   1   8
BRANCH   5  23
HETATM   23  C13 UNL     1      30.787  26.039  42.137  1.00  0.00     0.078 C 
BRANCH  23  24
HETATM   24  C14 UNL     1      32.078  26.607  42.683  1.00  0.00    -0.054 A 
HETATM   25  C15 UNL     1      32.101  27.871  43.287  1.00  0.00     0.010 A 
HETATM   26  C16 UNL     1      33.296  28.417  43.773  1.00  0.00     0.037 A 
HETATM   27  C17 UNL     1      34.488  27.706  43.664  1.00  0.00     0.068 A 
HETATM   28  C18 UNL     1      34.470  26.443  43.067  1.00  0.00     0.037 A 
HETATM   29  C19 UNL     1      33.280  25.896  42.575  1.00  0.00     0.010 A 
BRANCH  27  30
HETATM   30  O5  UNL     1      35.722  28.108  44.089  1.00  0.00    -0.349 OA
BRANCH  30  31
HETATM   31  C20 UNL     1      36.728  28.421  43.120  1.00  0.00     0.201 C 
BRANCH  31  32
HETATM   32  C21 UNL     1      37.864  27.399  43.135  1.00  0.00     0.195 C 
BRANCH  32  33
HETATM   33  O6  UNL     1      37.455  26.219  42.437  1.00  0.00    -0.384 OA
BRANCH  33  34
HETATM   34  C22 UNL     1      37.773  25.010  43.151  1.00  0.00     0.121 A 
HETATM   35  C23 UNL     1      36.597  24.192  43.608  1.00  0.00     0.034 A 
HETATM   36  C24 UNL     1      37.415  23.738  42.434  1.00  0.00     0.034 A 
ENDBRANCH  33  34
ENDBRANCH  32  33
ENDBRANCH  31  32
ENDBRANCH  30  31
ENDBRANCH  27  30
ENDBRANCH  23  24
ENDBRANCH   5  23
TORSDOF 13
