REMARK  5 active torsions:
REMARK  status: ('A' for Active; 'I' for Inactive)
REMARK    1  A    between atoms: C5_5  and  C7_8 
REMARK    2  A    between atoms: C7_8  and  C8_9 
REMARK    3  A    between atoms: N1_19  and  C19_22 
REMARK    4  A    between atoms: C19_22  and  C20_23 
REMARK    5  A    between atoms: C20_23  and  C21_24 
ROOT
HETATM    1  C7  UNL     1      27.240  30.602  37.713  1.00  0.00    -0.013 C 
HETATM    2  C9  UNL     1      28.280  29.960  38.312  1.00  0.00    -0.065 C 
HETATM    3  C15 UNL     1      28.153  29.197  39.627  1.00  0.00     0.065 C 
HETATM    4  C16 UNL     1      29.511  29.019  40.329  1.00  0.00     0.276 C 
HETATM    5  N1  UNL     1      30.456  28.258  39.505  1.00  0.00     0.089 N 
HETATM    6  C17 UNL     1      30.401  28.585  38.074  1.00  0.00     0.276 C 
HETATM    7  C18 UNL     1      29.695  29.913  37.746  1.00  0.00     0.065 C 
ENDROOT
BRANCH   1   8
HETATM    8  C5  UNL     1      27.469  31.372  36.465  1.00  0.00    -0.025 A 
HETATM    9  C4  UNL     1      27.430  32.774  36.493  1.00  0.00     0.015 A 
HETATM   10  C3  UNL     1      27.651  33.505  35.323  1.00  0.00     0.043 A 
HETATM   11  C2  UNL     1      27.917  32.834  34.136  1.00  0.00     0.116 A 
HETATM   12  C1  UNL     1      27.966  31.445  34.091  1.00  0.00     0.043 A 
HETATM   13  F1  UNL     1      28.129  33.535  33.015  1.00  0.00    -0.206 F 
HETATM   14  C6  UNL     1      27.742  30.712  35.257  1.00  0.00     0.015 A 
ENDBRANCH   1   8
BRANCH   1  15
HETATM   15  C8  UNL     1      25.882  30.525  38.304  1.00  0.00    -0.025 A 
HETATM   16  C10 UNL     1      25.715  30.359  39.688  1.00  0.00     0.015 A 
HETATM   17  C11 UNL     1      24.435  30.269  40.235  1.00  0.00     0.043 A 
HETATM   18  C12 UNL     1      23.326  30.340  39.401  1.00  0.00     0.116 A 
HETATM   19  C13 UNL     1      23.471  30.499  38.027  1.00  0.00     0.043 A 
HETATM   20  F2  UNL     1      22.098  30.250  39.927  1.00  0.00    -0.206 F 
HETATM   21  C14 UNL     1      24.751  30.590  37.477  1.00  0.00     0.015 A 
ENDBRANCH   1  15
BRANCH   5  22
HETATM   22  C19 UNL     1      31.808  28.185  40.070  1.00  0.00     0.277 C 
BRANCH  22  23
HETATM   23  C20 UNL     1      32.089  26.998  41.013  1.00  0.00     0.076 C 
BRANCH  23  24
HETATM   24  C21 UNL     1      33.214  27.307  41.972  1.00  0.00     0.036 A 
HETATM   25  C22 UNL     1      33.089  27.857  43.199  1.00  0.00     0.045 A 
HETATM   26  N2  UNL     1      34.147  28.086  44.053  1.00  0.00    -0.228 NA
HETATM   27  C27 UNL     1      31.769  28.316  43.765  1.00  0.00     0.071 C 
HETATM   28  C23 UNL     1      35.311  27.746  43.623  1.00  0.00     0.180 A 
HETATM   29  N3  UNL     1      35.592  27.182  42.406  1.00  0.00    -0.267 N 
HETATM   30  S1  UNL     1      36.804  27.946  44.528  1.00  0.00    -0.062 SA
HETATM   31  C24 UNL     1      34.587  26.930  41.507  1.00  0.00     0.262 A 
HETATM   32  C26 UNL     1      36.928  26.921  42.190  1.00  0.00     0.110 A 
HETATM   33  O1  UNL     1      34.761  26.444  40.392  1.00  0.00    -0.267 OA
HETATM   34  C25 UNL     1      37.720  27.265  43.213  1.00  0.00     0.071 A 
ENDBRANCH  23  24
ENDBRANCH  22  23
ENDBRANCH   5  22
TORSDOF 5
