REMARK  15 active torsions:
REMARK  status: ('A' for Active; 'I' for Inactive)
REMARK    1  A    between atoms: C5_5  and  C7_7 
REMARK    2  A    between atoms: C7_7  and  C8_8 
REMARK    3  A    between atoms: C8_8  and  N1_9 
REMARK    4  A    between atoms: C8_8  and  C9_10 
REMARK       I    between atoms: N1_9  and  C10_13 
REMARK    5  A    between atoms: C9_10  and  O2_12 
REMARK    6  A    between atoms: C10_13  and  C11_14 
REMARK    7  A    between atoms: C11_14  and  C12_16 
REMARK    8  A    between atoms: C11_14  and  N2_17 
REMARK    9  A    between atoms: C12_16  and  C19_28 
REMARK       I    between atoms: N2_17  and  C13_18 
REMARK   10  A    between atoms: C13_18  and  C14_19 
REMARK   11  A    between atoms: C14_19  and  C15_21 
REMARK   12  A    between atoms: C14_19  and  N3_22 
REMARK   13  A    between atoms: C15_21  and  C17_25 
REMARK   14  A    between atoms: N3_22  and  C16_23 
REMARK   15  A    between atoms: C17_25  and  S1_26 
ROOT
HETATM    1  C11 UNL     1      28.585  30.053  39.252  1.00  0.00     0.177 C 
ENDROOT
BRANCH   1   2
HETATM    2  C10 UNL     1      29.905  29.264  39.115  1.00  0.00     0.241 C 
HETATM    3  N1  UNL     1      29.833  28.180  38.264  1.00  0.00    -0.345 N 
HETATM    4  H9  UNL     1      28.907  27.824  38.059  1.00  0.00     0.163 HD
HETATM    5  O3  UNL     1      30.939  29.622  39.670  1.00  0.00    -0.271 OA
BRANCH   3   6
HETATM    6  C8  UNL     1      30.938  27.224  38.091  1.00  0.00     0.186 C 
BRANCH   6   7
HETATM    7  C7  UNL     1      30.860  25.992  39.003  1.00  0.00     0.074 C 
BRANCH   7   8
HETATM    8  C5  UNL     1      31.546  26.198  40.335  1.00  0.00    -0.056 A 
HETATM    9  C4  UNL     1      30.992  25.673  41.509  1.00  0.00     0.007 A 
HETATM   10  C3  UNL     1      31.629  25.857  42.736  1.00  0.00     0.001 A 
HETATM   11  C2  UNL     1      32.825  26.566  42.800  1.00  0.00     0.000 A 
HETATM   12  C1  UNL     1      33.388  27.093  41.637  1.00  0.00     0.001 A 
HETATM   13  C6  UNL     1      32.751  26.910  40.409  1.00  0.00     0.007 A 
ENDBRANCH   7   8
ENDBRANCH   6   7
BRANCH   6  14
HETATM   14  C9  UNL     1      31.038  26.806  36.622  1.00  0.00     0.163 C 
HETATM   15  O1  UNL     1      30.377  25.957  36.046  1.00  0.00    -0.648 OA
BRANCH  14  16
HETATM   16  O2  UNL     1      31.968  27.508  35.941  1.00  0.00    -0.775 OA
HETATM   17  H10 UNL     1      31.692  27.417  35.006  1.00  0.00     0.167 HD
ENDBRANCH  14  16
ENDBRANCH   6  14
ENDBRANCH   3   6
ENDBRANCH   1   2
BRANCH   1  18
HETATM   18  C12 UNL     1      27.605  29.235  40.102  1.00  0.00     0.038 C 
BRANCH  18  19
HETATM   19  C19 UNL     1      26.646  30.080  40.967  1.00  0.00    -0.020 C 
HETATM   20  C20 UNL     1      27.372  31.328  41.471  1.00  0.00     0.009 C 
HETATM   21  C21 UNL     1      25.381  30.489  40.205  1.00  0.00     0.009 C 
ENDBRANCH  18  19
ENDBRANCH   1  18
BRANCH   1  22
HETATM   22  N2  UNL     1      28.079  30.284  37.906  1.00  0.00    -0.346 N 
HETATM   23  C13 UNL     1      27.808  31.568  37.479  1.00  0.00     0.241 C 
HETATM   24  O4  UNL     1      27.764  32.535  38.238  1.00  0.00    -0.271 OA
HETATM   25  H14 UNL     1      28.386  29.620  37.199  1.00  0.00     0.163 HD
BRANCH  23  26
HETATM   26  C14 UNL     1      27.629  31.708  35.956  1.00  0.00     0.176 C 
BRANCH  26  27
HETATM   27  C15 UNL     1      28.322  30.531  35.248  1.00  0.00     0.045 C 
BRANCH  27  28
HETATM   28  C17 UNL     1      28.209  30.626  33.727  1.00  0.00     0.076 C 
BRANCH  28  29
HETATM   29  S1  UNL     1      27.844  29.006  32.968  1.00  0.00    -0.173 SA
HETATM   30  C18 UNL     1      29.446  28.197  33.226  1.00  0.00     0.089 C 
ENDBRANCH  28  29
ENDBRANCH  27  28
ENDBRANCH  26  27
BRANCH  26  31
HETATM   31  N3  UNL     1      28.227  32.979  35.551  1.00  0.00    -0.355 N 
HETATM   32  H18 UNL     1      28.977  33.320  36.145  1.00  0.00     0.162 HD
BRANCH  31  33
HETATM   33  C16 UNL     1      27.483  33.937  34.916  1.00  0.00     0.349 C 
HETATM   34  O5  UNL     1      27.851  34.625  33.976  1.00  0.00    -0.284 OA
ENDBRANCH  31  33
ENDBRANCH  26  31
ENDBRANCH  23  26
ENDBRANCH   1  22
TORSDOF 15
