REMARK  9 active torsions:
REMARK  status: ('A' for Active; 'I' for Inactive)
REMARK    1  A    between atoms: C2_2  and  O1_22 
REMARK    2  A    between atoms: C8_8  and  O5_32 
REMARK    3  A    between atoms: C17_17  and  C18_18 
REMARK    4  A    between atoms: C18_18  and  C20_20 
REMARK    5  A    between atoms: C20_20  and  C23_24 
REMARK    6  A    between atoms: C23_24  and  C24_25 
REMARK       I    between atoms: C24_25  and  N1_26 
REMARK    7  A    between atoms: N1_26  and  C25_28 
REMARK    8  A    between atoms: C25_28  and  C26_29 
REMARK    9  A    between atoms: C26_29  and  O4_31 
ROOT
HETATM    1  C1  UNL     1      35.578  25.489  41.443  1.00  0.00     0.032 C 
HETATM    2  C2  UNL     1      35.548  25.455  42.971  1.00  0.00     0.118 C 
HETATM    3  C3  UNL     1      34.977  26.740  43.546  1.00  0.00     0.037 C 
HETATM    4  C4  UNL     1      33.524  26.992  43.094  1.00  0.00    -0.001 C 
HETATM    5  C5  UNL     1      33.259  26.648  41.578  1.00  0.00    -0.036 C 
HETATM    6  C6  UNL     1      34.612  26.507  40.829  1.00  0.00     0.012 C 
HETATM    7  C7  UNL     1      33.161  28.441  43.455  1.00  0.00     0.037 C 
HETATM    8  C8  UNL     1      31.703  28.773  43.148  1.00  0.00     0.123 C 
HETATM    9  C9  UNL     1      31.208  28.219  41.796  1.00  0.00     0.024 C 
HETATM   10  C10 UNL     1      32.395  27.780  40.886  1.00  0.00     0.001 C 
HETATM   11  C11 UNL     1      30.368  29.275  41.061  1.00  0.00     0.001 C 
HETATM   12  C12 UNL     1      29.829  28.813  39.685  1.00  0.00    -0.036 C 
HETATM   13  C13 UNL     1      31.044  28.506  38.799  1.00  0.00     0.010 C 
HETATM   14  C14 UNL     1      31.947  27.437  39.438  1.00  0.00     0.007 C 
HETATM   15  C15 UNL     1      29.128  29.840  41.752  1.00  0.00     0.006 C 
HETATM   16  C16 UNL     1      28.329  30.500  40.611  1.00  0.00     0.006 C 
HETATM   17  C17 UNL     1      29.047  30.102  39.296  1.00  0.00    -0.002 C 
HETATM   18  C21 UNL     1      32.521  25.282  41.511  1.00  0.00     0.016 C 
HETATM   19  C22 UNL     1      28.924  27.566  39.773  1.00  0.00     0.016 C 
ENDROOT
BRANCH  17  20
HETATM   20  C18 UNL     1      28.196  30.160  37.995  1.00  0.00    -0.013 C 
HETATM   21  C19 UNL     1      29.106  30.612  36.836  1.00  0.00     0.010 C 
BRANCH  20  22
HETATM   22  C20 UNL     1      26.922  31.037  38.052  1.00  0.00     0.014 C 
BRANCH  22  23
HETATM   23  C23 UNL     1      25.774  30.617  37.125  1.00  0.00     0.103 C 
BRANCH  23  24
HETATM   24  C24 UNL     1      24.388  30.890  37.682  1.00  0.00     0.218 C 
HETATM   25  N1  UNL     1      24.266  30.509  39.003  1.00  0.00    -0.351 N 
HETATM   26  H39 UNL     1      24.947  29.847  39.354  1.00  0.00     0.163 HD
HETATM   27  O2  UNL     1      23.470  31.377  37.033  1.00  0.00    -0.274 OA
BRANCH  25  28
HETATM   28  C25 UNL     1      22.968  30.512  39.657  1.00  0.00     0.232 C 
BRANCH  28  29
HETATM   29  C26 UNL     1      22.206  29.237  39.334  1.00  0.00     0.158 C 
HETATM   30  O3  UNL     1      22.153  28.220  40.011  1.00  0.00    -0.649 OA
BRANCH  29  31
HETATM   31  O4  UNL     1      21.500  29.332  38.188  1.00  0.00    -0.775 OA
HETATM   32  H42 UNL     1      22.084  29.846  37.592  1.00  0.00     0.167 HD
ENDBRANCH  29  31
ENDBRANCH  28  29
ENDBRANCH  25  28
ENDBRANCH  23  24
ENDBRANCH  22  23
ENDBRANCH  20  22
ENDBRANCH  17  20
BRANCH   8  33
HETATM   33  O5  UNL     1      30.865  28.237  44.175  1.00  0.00    -0.395 OA
HETATM   34  H43 UNL     1      31.282  27.422  44.500  1.00  0.00     0.210 HD
ENDBRANCH   8  33
BRANCH   2  35
HETATM   35  O1  UNL     1      36.871  25.275  43.471  1.00  0.00    -0.396 OA
HETATM   36  H33 UNL     1      36.795  24.972  44.392  1.00  0.00     0.210 HD
ENDBRANCH   2  35
TORSDOF 9
