REMARK  9 active torsions:
REMARK  status: ('A' for Active; 'I' for Inactive)
REMARK    1  A    between atoms: C1_1  and  O4_15 
REMARK    2  A    between atoms: C2_2  and  N1_16 
REMARK    3  A    between atoms: C4_4  and  N2_17 
REMARK    4  A    between atoms: C6_6  and  O3_14 
REMARK    5  A    between atoms: C8_10  and  C12_18 
REMARK    6  A    between atoms: C9_11  and  O5_20 
REMARK    7  A    between atoms: C10_12  and  O6_21 
REMARK    8  A    between atoms: C11_13  and  N4_22 
REMARK    9  A    between atoms: C12_18  and  N3_19 
ROOT
HETATM    1  C1  UNL     1      33.033  26.846  40.812  1.00  0.00     0.182 C 
HETATM    2  C2  UNL     1      32.988  26.842  42.289  1.00  0.00     0.251 C 
HETATM    3  C3  UNL     1      32.202  27.983  42.886  1.00  0.00     0.076 C 
HETATM    4  C4  UNL     1      30.855  27.980  42.208  1.00  0.00     0.251 C 
HETATM    5  C5  UNL     1      31.021  28.383  40.772  1.00  0.00     0.189 A 
HETATM    6  C6  UNL     1      32.266  27.907  40.121  1.00  0.00     0.180 C 
HETATM    7  O1  UNL     1      30.948  29.777  40.724  1.00  0.00    -0.349 OA
HETATM    8  C7  UNL     1      29.845  30.227  40.053  1.00  0.00     0.296 A 
HETATM    9  O2  UNL     1      28.996  30.994  40.867  1.00  0.00    -0.349 OA
HETATM   10  C8  UNL     1      27.763  31.144  40.288  1.00  0.00     0.183 C 
HETATM   11  C9  UNL     1      27.696  30.790  38.846  1.00  0.00     0.179 C 
HETATM   12  C10 UNL     1      28.894  31.189  38.045  1.00  0.00     0.187 C 
HETATM   13  C11 UNL     1      30.181  31.111  38.867  1.00  0.00     0.303 C 
HETATM   14 CL1  UNL     1      29.628  29.518  40.194  1.00  0.00    -0.145 Cl
HETATM   15 CL2  UNL     1      29.631  29.515  40.195  1.00  0.00    -0.145 Cl
HETATM   16 CL3  UNL     1      29.625  29.521  40.192  1.00  0.00    -0.145 Cl
HETATM   17 CL4  UNL     1      29.629  29.517  40.194  1.00  0.00    -0.145 Cl
HETATM   18  H27 UNL     1      30.563  28.632  40.673  1.00  0.00     0.145 HD
HETATM   19  H28 UNL     1      30.561  28.635  40.671  1.00  0.00     0.145 HD
HETATM   20  H29 UNL     1      30.567  28.629  40.674  1.00  0.00     0.145 HD
HETATM   21  H30 UNL     1      30.563  28.633  40.672  1.00  0.00     0.145 HD
ENDROOT
BRANCH   4  22
HETATM   22  N2  UNL     1      30.188  26.715  42.272  1.00  0.00     0.085 N 
HETATM   23  H17 UNL     1      30.897  25.950  42.144  1.00  0.00     0.313 HD
HETATM   24  H18 UNL     1      29.812  26.573  43.256  1.00  0.00     0.313 HD
ENDBRANCH   4  22
BRANCH   6  25
HETATM   25  O3  UNL     1      31.944  27.432  38.829  1.00  0.00    -0.390 OA
HETATM   26  H13 UNL     1      31.413  26.587  38.915  1.00  0.00     0.210 HD
ENDBRANCH   6  25
BRANCH   1  27
HETATM   27  O4  UNL     1      34.396  26.922  40.433  1.00  0.00    -0.391 OA
HETATM   28  H14 UNL     1      34.842  26.054  40.497  1.00  0.00     0.210 HD
ENDBRANCH   1  27
BRANCH   2  29
HETATM   29  N1  UNL     1      32.389  25.611  42.804  1.00  0.00     0.085 N 
HETATM   30  H15 UNL     1      31.357  25.607  42.681  1.00  0.00     0.313 HD
HETATM   31  H16 UNL     1      32.860  24.766  42.420  1.00  0.00     0.313 HD
ENDBRANCH   2  29
BRANCH  13  32
HETATM   32  N4  UNL     1      30.483  32.457  39.294  1.00  0.00     0.090 N 
HETATM   33  H25 UNL     1      31.385  32.776  38.876  1.00  0.00     0.313 HD
HETATM   34  H26 UNL     1      29.693  33.114  39.086  1.00  0.00     0.313 HD
ENDBRANCH  13  32
BRANCH  10  35
HETATM   35  C12 UNL     1      26.803  30.223  41.048  1.00  0.00     0.301 C 
BRANCH  35  36
HETATM   36  N3  UNL     1      25.431  30.458  40.630  1.00  0.00     0.080 N 
HETATM   37  H21 UNL     1      24.855  30.665  41.489  1.00  0.00     0.312 HD
HETATM   38  H22 UNL     1      25.443  31.347  40.082  1.00  0.00     0.312 HD
ENDBRANCH  35  36
ENDBRANCH  10  35
BRANCH  12  39
HETATM   39  O6  UNL     1      29.045  30.225  37.024  1.00  0.00    -0.391 OA
HETATM   40  H24 UNL     1      29.947  29.787  37.085  1.00  0.00     0.210 HD
ENDBRANCH  12  39
BRANCH  11  41
HETATM   41  O5  UNL     1      26.584  31.450  38.275  1.00  0.00    -0.390 OA
HETATM   42  H23 UNL     1      26.449  31.029  37.368  1.00  0.00     0.210 HD
ENDBRANCH  11  41
TORSDOF 9
