REMARK  12 active torsions:
REMARK  status: ('A' for Active; 'I' for Inactive)
REMARK    1  A    between atoms: C1_1  and  C6_7 
REMARK    2  A    between atoms: C2_3  and  O3_9 
REMARK    3  A    between atoms: C3_4  and  O4_10 
REMARK    4  A    between atoms: C4_5  and  O7_19 
REMARK    5  A    between atoms: C5_6  and  O11_23 
REMARK    6  A    between atoms: C6_7  and  O2_8 
REMARK    7  A    between atoms: O4_10  and  C7_11 
REMARK    8  A    between atoms: C8_12  and  O8_20 
REMARK    9  A    between atoms: C9_13  and  O9_21 
REMARK   10  A    between atoms: C10_14  and  O10_22 
REMARK   11  A    between atoms: C11_15  and  C12_17 
REMARK   12  A    between atoms: C12_17  and  O6_18 
ROOT
HETATM    1  O4  UNL     1      30.946  28.953  39.544  1.00  0.00    -0.346 OA
ENDROOT
BRANCH   1   2
HETATM    2  C3  UNL     1      30.550  27.946  40.481  1.00  0.00     0.211 C 
HETATM    3  C2  UNL     1      31.323  28.142  41.802  1.00  0.00     0.289 C 
HETATM    4  O1  UNL     1      31.201  27.004  42.646  1.00  0.00    -0.349 OA
HETATM    5  C1  UNL     1      31.799  25.810  42.097  1.00  0.00     0.179 C 
HETATM    6  C5  UNL     1      31.964  25.822  40.563  1.00  0.00     0.180 C 
HETATM    7  C4  UNL     1      30.760  26.522  39.925  1.00  0.00     0.183 C 
BRANCH   3   8
HETATM    8  O3  UNL     1      32.701  28.427  41.588  1.00  0.00    -0.369 OA
HETATM    9  H9  UNL     1      32.962  27.913  40.803  1.00  0.00     0.212 HD
ENDBRANCH   3   8
BRANCH   5  10
HETATM   10  C6  UNL     1      33.137  25.560  42.807  1.00  0.00     0.198 C 
BRANCH  10  11
HETATM   11  O2  UNL     1      34.218  25.836  41.917  1.00  0.00    -0.398 OA
HETATM   12  H8  UNL     1      34.811  25.062  41.977  1.00  0.00     0.209 HD
ENDBRANCH  10  11
ENDBRANCH   5  10
BRANCH   6  13
HETATM   13  O11 UNL     1      32.029  24.490  40.026  1.00  0.00    -0.390 OA
HETATM   14  H22 UNL     1      32.748  24.018  40.483  1.00  0.00     0.210 HD
ENDBRANCH   6  13
BRANCH   7  15
HETATM   15  O7  UNL     1      30.898  26.504  38.491  1.00  0.00    -0.390 OA
HETATM   16  H18 UNL     1      31.281  25.623  38.294  1.00  0.00     0.210 HD
ENDBRANCH   7  15
ENDBRANCH   1   2
BRANCH   1  17
HETATM   17  C7  UNL     1      29.956  29.976  39.377  1.00  0.00     0.292 C 
HETATM   18  C8  UNL     1      30.179  30.575  37.977  1.00  0.00     0.204 C 
HETATM   19  C9  UNL     1      29.303  31.811  37.769  1.00  0.00     0.183 C 
HETATM   20  C10 UNL     1      29.434  32.791  38.937  1.00  0.00     0.180 C 
HETATM   21  C11 UNL     1      29.295  32.092  40.309  1.00  0.00     0.179 C 
HETATM   22  O5  UNL     1      30.131  30.927  40.420  1.00  0.00    -0.348 OA
BRANCH  18  23
HETATM   23  O8  UNL     1      29.840  29.617  36.949  1.00  0.00    -0.388 OA
HETATM   24  H19 UNL     1      29.666  30.146  36.135  1.00  0.00     0.210 HD
ENDBRANCH  18  23
BRANCH  19  25
HETATM   25  O9  UNL     1      27.940  31.401  37.589  1.00  0.00    -0.390 OA
HETATM   26  H20 UNL     1      27.853  30.601  38.152  1.00  0.00     0.210 HD
ENDBRANCH  19  25
BRANCH  20  27
HETATM   27  O10 UNL     1      30.734  33.405  38.866  1.00  0.00    -0.390 OA
HETATM   28  H21 UNL     1      31.351  32.826  39.345  1.00  0.00     0.210 HD
ENDBRANCH  20  27
BRANCH  21  29
HETATM   29  C12 UNL     1      27.843  31.770  40.698  1.00  0.00     0.198 C 
BRANCH  29  30
HETATM   30  O6  UNL     1      27.068  32.959  40.797  1.00  0.00    -0.398 OA
HETATM   31  H17 UNL     1      26.179  32.695  41.090  1.00  0.00     0.209 HD
ENDBRANCH  29  30
ENDBRANCH  21  29
ENDBRANCH   1  17
TORSDOF 12
