REMARK  5 active torsions:
REMARK  status: ('A' for Active; 'I' for Inactive)
REMARK    1  A    between atoms: N1_8  and  S1_15 
REMARK    2  A    between atoms: C8_9  and  C10_11 
REMARK       I    between atoms: C10_11  and  N2_12 
REMARK    3  A    between atoms: N2_12  and  O2_14 
REMARK    4  A    between atoms: S1_15  and  C11_16 
REMARK    5  A    between atoms: C14_21  and  O5_24 
ROOT
HETATM    1  C1  UNL     1      29.944  27.159  34.144  1.00  0.00     0.001 A 
HETATM    2  C2  UNL     1      30.527  26.219  34.995  1.00  0.00     0.001 A 
HETATM    3  C3  UNL     1      30.937  26.591  36.276  1.00  0.00     0.009 A 
HETATM    4  C4  UNL     1      30.750  27.905  36.714  1.00  0.00    -0.038 A 
HETATM    5  C5  UNL     1      30.154  28.843  35.859  1.00  0.00    -0.049 A 
HETATM    6  C6  UNL     1      29.760  28.473  34.571  1.00  0.00     0.008 A 
HETATM    7  C7  UNL     1      31.218  28.381  38.064  1.00  0.00     0.147 C 
HETATM    8  N1  UNL     1      30.260  29.295  38.749  1.00  0.00    -0.188 NA
HETATM    9  C8  UNL     1      29.473  30.211  37.833  1.00  0.00     0.173 C 
HETATM   10  C9  UNL     1      30.004  30.241  36.388  1.00  0.00     0.069 C 
ENDROOT
BRANCH   8  11
HETATM   11  S1  UNL     1      29.330  28.562  39.971  1.00  0.00     0.244 S 
HETATM   12  O3  UNL     1      28.755  29.620  40.779  1.00  0.00    -0.206 OA
HETATM   13  O4  UNL     1      28.492  27.561  39.351  1.00  0.00    -0.206 OA
BRANCH  11  14
HETATM   14  C11 UNL     1      30.554  27.751  40.965  1.00  0.00     0.074 A 
HETATM   15  C12 UNL     1      31.343  28.515  41.826  1.00  0.00     0.027 A 
HETATM   16  C13 UNL     1      32.313  27.880  42.603  1.00  0.00     0.038 A 
HETATM   17  C14 UNL     1      32.496  26.494  42.529  1.00  0.00     0.068 A 
HETATM   18  C15 UNL     1      31.694  25.741  41.667  1.00  0.00     0.038 A 
HETATM   19  C16 UNL     1      30.720  26.367  40.884  1.00  0.00     0.027 A 
BRANCH  17  20
HETATM   20  O5  UNL     1      33.479  26.007  43.343  1.00  0.00    -0.356 OA
HETATM   21  C17 UNL     1      34.803  25.994  42.822  1.00  0.00     0.210 C 
ENDBRANCH  17  20
ENDBRANCH  11  14
ENDBRANCH   8  11
BRANCH   9  22
HETATM   22  C10 UNL     1      29.542  31.638  38.396  1.00  0.00     0.260 C 
HETATM   23  N2  UNL     1      30.787  32.230  38.348  1.00  0.00    -0.236 N 
HETATM   24  H10 UNL     1      31.416  31.997  37.571  1.00  0.00     0.197 HD
HETATM   25  O1  UNL     1      28.572  32.242  38.859  1.00  0.00    -0.270 OA
BRANCH  23  26
HETATM   26  O2  UNL     1      30.798  33.594  38.744  1.00  0.00    -0.287 OA
HETATM   27  H11 UNL     1      30.916  33.532  39.718  1.00  0.00     0.244 HD
ENDBRANCH  23  26
ENDBRANCH   9  22
TORSDOF 5
