REMARK  6 active torsions:
REMARK  status: ('A' for Active; 'I' for Inactive)
REMARK    1  A    between atoms: C4_4  and  N1_8 
REMARK    2  A    between atoms: C6_6  and  C17_21 
REMARK       I    between atoms: N1_8  and  C7_9 
REMARK    3  A    between atoms: C7_9  and  C8_11 
REMARK    4  A    between atoms: C13_16  and  O2_17 
REMARK    5  A    between atoms: O2_17  and  C14_18 
REMARK    6  A    between atoms: C14_18  and  C15_19 
ROOT
HETATM    1  N1  UNL     1      32.950  26.791  40.539  1.00  0.00    -0.323 N 
HETATM    2  C7  UNL     1      31.754  26.118  40.374  1.00  0.00     0.259 C 
HETATM    3  O1  UNL     1      31.164  25.493  41.250  1.00  0.00    -0.267 OA
HETATM    4  H4  UNL     1      33.303  27.259  39.709  1.00  0.00     0.169 HD
ENDROOT
BRANCH   1   5
HETATM    5  C4  UNL     1      33.720  26.922  41.709  1.00  0.00     0.035 A 
HETATM    6  C3  UNL     1      33.461  27.847  42.718  1.00  0.00     0.031 A 
HETATM    7  C2  UNL     1      34.283  27.911  43.847  1.00  0.00     0.027 A 
HETATM    8  C1  UNL     1      35.375  27.052  43.980  1.00  0.00     0.049 A 
HETATM    9  C6  UNL     1      35.658  26.114  42.982  1.00  0.00     0.071 A 
HETATM   10 CL1  UNL     1      36.340  27.197  45.403  1.00  0.00    -0.083 Cl
HETATM   11  C5  UNL     1      34.817  26.062  41.851  1.00  0.00     0.047 A 
BRANCH   9  12
HETATM   12  C17 UNL     1      36.827  25.175  43.091  1.00  0.00     0.419 C 
HETATM   13  F1  UNL     1      36.899  24.295  42.048  1.00  0.00    -0.166 F 
HETATM   14  F2  UNL     1      36.790  24.401  44.209  1.00  0.00    -0.166 F 
HETATM   15  F3  UNL     1      38.029  25.814  43.102  1.00  0.00    -0.166 F 
ENDBRANCH   9  12
ENDBRANCH   1   5
BRANCH   2  16
HETATM   16  C8  UNL     1      31.155  26.157  38.996  1.00  0.00     0.065 A 
HETATM   17  C9  UNL     1      30.713  24.933  38.462  1.00  0.00     0.020 A 
HETATM   18  C10 UNL     1      30.150  24.867  37.186  1.00  0.00     0.001 A 
HETATM   19  C11 UNL     1      30.026  26.023  36.423  1.00  0.00     0.003 A 
HETATM   20  C12 UNL     1      30.451  27.248  36.938  1.00  0.00     0.038 A 
HETATM   21  C13 UNL     1      30.993  27.326  38.229  1.00  0.00     0.084 A 
BRANCH  21  22
HETATM   22  O2  UNL     1      31.426  28.531  38.727  1.00  0.00    -0.350 OA
BRANCH  22  23
HETATM   23  C14 UNL     1      30.443  29.572  38.630  1.00  0.00     0.175 C 
BRANCH  23  24
HETATM   24  C15 UNL     1      29.570  29.534  39.883  1.00  0.00     0.022 C 
HETATM   25  C16 UNL     1      30.392  29.400  41.157  1.00  0.00     0.007 C 
ENDBRANCH  23  24
ENDBRANCH  22  23
ENDBRANCH  21  22
ENDBRANCH   2  16
TORSDOF 6
