REMARK  5 active torsions:
REMARK  status: ('A' for Active; 'I' for Inactive)
REMARK    1  A    between atoms: C2_2  and  C6_10 
REMARK    2  A    between atoms: C4_5  and  N5_11 
REMARK    3  A    between atoms: N5_11  and  C7_12 
REMARK    4  A    between atoms: C7_12  and  C14_23 
REMARK    5  A    between atoms: C10_15  and  S1_18 
ROOT
HETATM    1  C1  UNL     1      31.096  28.716  41.375  1.00  0.00     0.136 A 
HETATM    2  C2  UNL     1      30.617  28.131  40.254  1.00  0.00     0.040 A 
HETATM    3  C3  UNL     1      30.976  26.768  40.061  1.00  0.00     0.172 A 
HETATM    4  N1  UNL     1      31.780  26.191  41.012  1.00  0.00    -0.261 N 
HETATM    5  C4  UNL     1      32.274  26.884  42.121  1.00  0.00     0.189 A 
HETATM    6  N2  UNL     1      31.925  28.127  42.313  1.00  0.00    -0.231 NA
HETATM    7  N3  UNL     1      30.697  25.874  39.133  1.00  0.00    -0.129 NA
HETATM    8  N4  UNL     1      31.290  24.683  39.499  1.00  0.00    -0.143 NA
HETATM    9  C5  UNL     1      31.914  24.886  40.638  1.00  0.00     0.243 A 
ENDROOT
BRANCH   2  10
HETATM   10  C6  UNL     1      29.733  28.901  39.349  1.00  0.00    -0.021 A 
HETATM   11  C8  UNL     1      28.407  29.203  39.705  1.00  0.00     0.014 A 
HETATM   12  C9  UNL     1      27.588  29.945  38.849  1.00  0.00     0.024 A 
HETATM   13  C10 UNL     1      28.101  30.404  37.634  1.00  0.00     0.058 A 
HETATM   14  C11 UNL     1      29.412  30.109  37.257  1.00  0.00     0.024 A 
HETATM   15  C12 UNL     1      30.224  29.368  38.118  1.00  0.00     0.014 A 
BRANCH  13  16
HETATM   16  S1  UNL     1      27.067  31.346  36.539  1.00  0.00     0.171 S 
HETATM   17  C13 UNL     1      27.886  31.187  34.972  1.00  0.00     0.167 C 
HETATM   18  O1  UNL     1      25.788  30.668  36.455  1.00  0.00    -0.223 OA
HETATM   19  O2  UNL     1      27.146  32.736  36.949  1.00  0.00    -0.223 OA
ENDBRANCH  13  16
ENDBRANCH   2  10
BRANCH   5  20
HETATM   20  N5  UNL     1      33.105  26.264  43.027  1.00  0.00    -0.256 NA
HETATM   21  H3  UNL     1      32.631  26.272  43.933  1.00  0.00     0.131 HD
BRANCH  20  22
HETATM   22  C7  UNL     1      34.446  26.807  43.253  1.00  0.00     0.160 C 
BRANCH  22  23
HETATM   23  C14 UNL     1      35.516  25.782  43.124  1.00  0.00     0.065 A 
HETATM   24  O3  UNL     1      35.610  24.866  44.131  1.00  0.00    -0.326 OA
HETATM   25  C17 UNL     1      36.631  24.030  43.813  1.00  0.00     0.142 A 
HETATM   26  C16 UNL     1      37.193  24.392  42.610  1.00  0.00     0.027 A 
HETATM   27  C15 UNL     1      36.472  25.526  42.161  1.00  0.00     0.036 A 
ENDBRANCH  22  23
ENDBRANCH  20  22
ENDBRANCH   5  20
TORSDOF 5
