REMARK  4 active torsions:
REMARK  status: ('A' for Active; 'I' for Inactive)
REMARK    1  A    between atoms: N1_8  and  C9_12 
REMARK    2  A    between atoms: C8_9  and  C11_14 
REMARK    3  A    between atoms: C9_12  and  C10_13 
REMARK    4  A    between atoms: C12_15  and  C13_16 
ROOT
HETATM    1  C1  UNL     1      23.957  30.398  39.722  1.00  0.00     0.002 A 
HETATM    2  C2  UNL     1      23.890  30.656  38.354  1.00  0.00     0.001 A 
HETATM    3  C3  UNL     1      25.062  30.703  37.600  1.00  0.00     0.019 A 
HETATM    4  C4  UNL     1      26.297  30.491  38.226  1.00  0.00     0.061 A 
HETATM    5  C5  UNL     1      26.376  30.233  39.590  1.00  0.00     0.074 A 
HETATM    6  C6  UNL     1      25.195  30.188  40.335  1.00  0.00     0.032 A 
HETATM    7  C7  UNL     1      27.556  30.536  37.465  1.00  0.00     0.262 A 
HETATM    8  N1  UNL     1      28.731  30.310  38.182  1.00  0.00    -0.294 N 
HETATM    9  C8  UNL     1      28.687  30.060  39.543  1.00  0.00     0.133 A 
HETATM   10  N2  UNL     1      27.593  30.016  40.238  1.00  0.00    -0.230 NA
HETATM   11  O1  UNL     1      27.513  30.773  36.259  1.00  0.00    -0.267 OA
ENDROOT
BRANCH   9  12
HETATM   12  C11 UNL     1      29.975  29.815  40.239  1.00  0.00     0.051 C 
HETATM   13  C12 UNL     1      30.205  28.589  40.732  1.00  0.00     0.016 C 
BRANCH  13  14
HETATM   14  C13 UNL     1      31.425  28.172  41.436  1.00  0.00    -0.019 A 
HETATM   15  C14 UNL     1      32.502  27.534  40.823  1.00  0.00     0.127 A 
HETATM   16  N3  UNL     1      33.646  27.171  41.453  1.00  0.00    -0.272 NA
HETATM   17  C15 UNL     1      33.730  27.463  42.767  1.00  0.00     0.116 A 
HETATM   18  C16 UNL     1      32.727  28.103  43.475  1.00  0.00     0.020 A 
HETATM   19  C17 UNL     1      31.564  28.464  42.795  1.00  0.00     0.014 A 
ENDBRANCH  13  14
ENDBRANCH   9  12
BRANCH   8  20
HETATM   20  C9  UNL     1      29.985  30.397  37.424  1.00  0.00     0.172 C 
BRANCH  20  21
HETATM   21  C10 UNL     1      30.305  29.133  36.653  1.00  0.00    -0.040 A 
HETATM   22  C18 UNL     1      30.760  27.982  37.314  1.00  0.00     0.009 A 
HETATM   23  C19 UNL     1      31.051  26.819  36.599  1.00  0.00     0.001 A 
HETATM   24  C20 UNL     1      30.898  26.795  35.214  1.00  0.00     0.000 A 
HETATM   25  C21 UNL     1      30.465  27.935  34.542  1.00  0.00     0.001 A 
HETATM   26  C22 UNL     1      30.178  29.100  35.256  1.00  0.00     0.009 A 
ENDBRANCH  20  21
ENDBRANCH   8  20
TORSDOF 4
