REMARK  8 active torsions:
REMARK  status: ('A' for Active; 'I' for Inactive)
REMARK    1  A    between atoms: C1_1  and  O1_11 
REMARK    2  A    between atoms: C2_2  and  O2_13 
REMARK    3  A    between atoms: C7_7  and  O3_15 
REMARK    4  A    between atoms: O3_15  and  C12_16 
REMARK    5  A    between atoms: C14_18  and  O4_22 
REMARK    6  A    between atoms: C15_19  and  N2_23 
REMARK       I    between atoms: N2_23  and  C18_24 
REMARK       I    between atoms: C18_24  and  N3_27 
REMARK    7  A    between atoms: N3_27  and  C20_28 
REMARK    8  A    between atoms: C20_28  and  C21_29 
ROOT
HETATM    1  C12 UNL     1      29.143  29.005  40.521  1.00  0.00     0.079 A 
HETATM    2  C13 UNL     1      29.316  27.706  40.032  1.00  0.00     0.076 A 
HETATM    3  C14 UNL     1      30.531  27.045  40.229  1.00  0.00     0.097 A 
HETATM    4  C15 UNL     1      31.573  27.687  40.936  1.00  0.00     0.070 A 
HETATM    5  C16 UNL     1      31.371  28.970  41.454  1.00  0.00     0.035 A 
HETATM    6  C17 UNL     1      30.155  29.625  41.250  1.00  0.00     0.040 A 
ENDROOT
BRANCH   1   7
HETATM    7  O3  UNL     1      27.970  29.711  40.370  1.00  0.00    -0.310 OA
BRANCH   7   8
HETATM    8  C7  UNL     1      27.641  30.109  39.089  1.00  0.00     0.090 A 
HETATM    9  C4  UNL     1      26.283  30.303  38.765  1.00  0.00     0.029 A 
HETATM   10  C3  UNL     1      25.226  30.089  39.677  1.00  0.00     0.056 A 
HETATM   11  C5  UNL     1      25.997  30.720  37.454  1.00  0.00     0.072 A 
HETATM   12  C2  UNL     1      23.898  30.290  39.295  1.00  0.00     0.102 A 
HETATM   13  C1  UNL     1      23.619  30.703  37.982  1.00  0.00     0.103 A 
HETATM   14  C6  UNL     1      24.672  30.910  37.086  1.00  0.00     0.072 A 
HETATM   15  N1  UNL     1      26.958  30.944  36.539  1.00  0.00    -0.260 NA
HETATM   16  C9  UNL     1      28.249  30.777  36.904  1.00  0.00     0.120 A 
HETATM   17  C8  UNL     1      28.643  30.372  38.159  1.00  0.00     0.057 A 
BRANCH  12  18
HETATM   18  O2  UNL     1      22.815  30.105  40.117  1.00  0.00    -0.353 OA
HETATM   19  C11 UNL     1      22.560  28.791  40.592  1.00  0.00     0.210 C 
ENDBRANCH  12  18
BRANCH  13  20
HETATM   20  O1  UNL     1      22.292  30.876  37.673  1.00  0.00    -0.353 OA
HETATM   21  C10 UNL     1      21.801  32.206  37.584  1.00  0.00     0.210 C 
ENDBRANCH  13  20
ENDBRANCH   7   8
ENDBRANCH   1   7
BRANCH   3  22
HETATM   22  O4  UNL     1      30.818  25.775  39.783  1.00  0.00    -0.354 OA
HETATM   23  C19 UNL     1      30.766  25.555  38.376  1.00  0.00     0.210 C 
ENDBRANCH   3  22
BRANCH   4  24
HETATM   24  N2  UNL     1      32.780  26.969  41.081  1.00  0.00    -0.306 N 
HETATM   25  C18 UNL     1      33.515  26.748  42.219  1.00  0.00     0.321 C 
HETATM   26  O5  UNL     1      33.258  27.150  43.346  1.00  0.00    -0.247 OA
HETATM   27  N3  UNL     1      34.646  26.022  41.944  1.00  0.00    -0.333 N 
HETATM   28  H18 UNL     1      34.682  25.474  41.093  1.00  0.00     0.165 HD
HETATM   29  H14 UNL     1      33.197  26.691  40.202  1.00  0.00     0.171 HD
BRANCH  27  30
HETATM   30  C20 UNL     1      35.580  25.628  42.988  1.00  0.00     0.141 C 
HETATM   31  C22 UNL     1      36.280  24.316  42.631  1.00  0.00     0.039 C 
BRANCH  30  32
HETATM   32  C21 UNL     1      36.586  26.744  43.135  1.00  0.00     0.097 A 
HETATM   33  S1  UNL     1      36.773  27.544  44.647  1.00  0.00    -0.083 SA
HETATM   34  C23 UNL     1      37.958  28.564  43.948  1.00  0.00     0.071 A 
HETATM   35  C24 UNL     1      38.132  28.236  42.623  1.00  0.00     0.124 A 
HETATM   36  N4  UNL     1      37.354  27.198  42.157  1.00  0.00    -0.256 NA
ENDBRANCH  30  32
ENDBRANCH  27  30
ENDBRANCH   4  24
TORSDOF 8
