REMARK  5 active torsions:
REMARK  status: ('A' for Active; 'I' for Inactive)
REMARK    1  A    between atoms: C1_1  and  N1_7 
REMARK    2  A    between atoms: C3_3  and  N2_11 
REMARK       I    between atoms: N1_7  and  C7_8 
REMARK    3  A    between atoms: N3_15  and  C13_19 
REMARK    4  A    between atoms: C16_23  and  N5_26 
REMARK    5  A    between atoms: N5_26  and  C18_27 
ROOT
HETATM    1  N2  UNL     1      30.063  28.352  37.758  1.00  0.00    -0.262 N 
HETATM    2  C9  UNL     1      30.446  27.242  38.536  1.00  0.00     0.074 C 
HETATM    3  C10 UNL     1      30.962  27.527  39.861  1.00  0.00     0.099 C 
HETATM    4  C11 UNL     1      30.870  28.924  40.356  1.00  0.00     0.267 C 
HETATM    5  N3  UNL     1      29.876  29.663  39.748  1.00  0.00    -0.260 N 
HETATM    6  C12 UNL     1      29.738  29.599  38.361  1.00  0.00     0.337 C 
HETATM    7  O2  UNL     1      29.410  30.606  37.726  1.00  0.00    -0.246 OA
HETATM    8  O3  UNL     1      31.620  29.349  41.233  1.00  0.00    -0.267 OA
HETATM    9  C14 UNL     1      30.305  25.951  38.156  1.00  0.00     0.035 C 
HETATM   10  C15 UNL     1      30.928  24.875  38.994  1.00  0.00     0.256 C 
HETATM   11  N4  UNL     1      31.516  25.263  40.188  1.00  0.00    -0.308 N 
HETATM   12  C16 UNL     1      31.460  26.569  40.683  1.00  0.00     0.107 C 
HETATM   13  O4  UNL     1      30.913  23.712  38.592  1.00  0.00    -0.267 OA
HETATM   14  C17 UNL     1      32.207  24.227  40.953  1.00  0.00     0.161 C 
HETATM   15  C26 UNL     1      29.532  25.411  36.981  1.00  0.00     0.056 C 
ENDROOT
BRANCH   1  16
HETATM   16  C3  UNL     1      30.164  28.346  36.311  1.00  0.00     0.046 A 
HETATM   17  C2  UNL     1      29.256  29.091  35.533  1.00  0.00     0.059 A 
HETATM   18  C1  UNL     1      29.336  29.116  34.132  1.00  0.00     0.036 A 
HETATM   19  C6  UNL     1      30.334  28.375  33.503  1.00  0.00     0.029 A 
HETATM   20  C5  UNL     1      31.233  27.620  34.257  1.00  0.00     0.004 A 
HETATM   21  C4  UNL     1      31.148  27.603  35.650  1.00  0.00     0.030 A 
BRANCH  18  22
HETATM   22  N1  UNL     1      28.385  29.901  33.446  1.00  0.00    -0.327 N 
HETATM   23  C7  UNL     1      28.494  30.434  32.173  1.00  0.00     0.218 C 
HETATM   24  C8  UNL     1      27.265  31.214  31.775  1.00  0.00     0.117 C 
HETATM   25  O1  UNL     1      29.435  30.308  31.398  1.00  0.00    -0.274 OA
HETATM   26  H7  UNL     1      27.525  30.096  33.943  1.00  0.00     0.169 HD
ENDBRANCH  18  22
ENDBRANCH   1  16
BRANCH   5  27
HETATM   27  C13 UNL     1      29.503  30.913  40.393  1.00  0.00     0.098 A 
HETATM   28  C24 UNL     1      28.142  31.525  40.172  1.00  0.00     0.028 A 
HETATM   29  C25 UNL     1      28.485  30.943  41.509  1.00  0.00     0.028 A 
ENDBRANCH   5  27
BRANCH  12  30
HETATM   30  N5  UNL     1      31.929  26.847  41.970  1.00  0.00    -0.242 NA
HETATM   31  H13 UNL     1      31.621  26.129  42.648  1.00  0.00     0.135 HD
BRANCH  30  32
HETATM   32  C18 UNL     1      33.304  27.100  42.272  1.00  0.00     0.053 A 
HETATM   33  C19 UNL     1      34.368  26.641  41.488  1.00  0.00     0.028 A 
HETATM   34  C20 UNL     1      35.690  26.971  41.813  1.00  0.00     0.020 A 
HETATM   35  C21 UNL     1      35.958  27.779  42.918  1.00  0.00     0.009 A 
HETATM   36  C22 UNL     1      34.917  28.264  43.702  1.00  0.00     0.062 A 
HETATM   37  I1  UNL     1      37.921  28.264  43.394  1.00  0.00    -0.044 I 
HETATM   38  C23 UNL     1      33.608  27.928  43.368  1.00  0.00     0.139 A 
HETATM   39  F1  UNL     1      32.609  28.404  44.130  1.00  0.00    -0.204 F 
ENDBRANCH  30  32
ENDBRANCH  12  30
TORSDOF 5
