REMARK  14 active torsions:
REMARK  status: ('A' for Active; 'I' for Inactive)
REMARK    1  A    between atoms: C7_7  and  O2_12 
REMARK    2  A    between atoms: C10_10  and  O1_11 
REMARK    3  A    between atoms: O1_11  and  C17_21 
REMARK    4  A    between atoms: O2_12  and  C11_13 
REMARK    5  A    between atoms: C11_13  and  C12_14 
REMARK    6  A    between atoms: C12_14  and  C13_15 
REMARK    7  A    between atoms: C12_14  and  O3_17 
REMARK    8  A    between atoms: C13_15  and  N1_16 
REMARK    9  A    between atoms: N1_16  and  C14_18 
REMARK   10  A    between atoms: C18_22  and  O5_27 
REMARK   11  A    between atoms: C19_23  and  O7_29 
REMARK   12  A    between atoms: C20_24  and  O6_28 
REMARK   13  A    between atoms: C21_25  and  C22_30 
REMARK   14  A    between atoms: C22_30  and  O9_32 
ROOT
HETATM    1  C1  UNL     1      30.678  26.782  39.774  1.00  0.00     0.010 A 
HETATM    2  C2  UNL     1      31.501  26.270  40.811  1.00  0.00     0.010 A 
HETATM    3  C3  UNL     1      31.943  24.932  40.739  1.00  0.00     0.015 A 
HETATM    4  C4  UNL     1      31.601  24.110  39.664  1.00  0.00     0.001 A 
HETATM    5  C5  UNL     1      30.806  24.610  38.642  1.00  0.00     0.001 A 
HETATM    6  C6  UNL     1      30.350  25.926  38.699  1.00  0.00     0.015 A 
HETATM    7  C7  UNL     1      30.213  28.121  39.847  1.00  0.00     0.080 A 
HETATM    8  C8  UNL     1      30.540  28.921  40.947  1.00  0.00     0.040 A 
HETATM    9  C9  UNL     1      31.346  28.418  41.965  1.00  0.00     0.040 A 
HETATM   10  C10 UNL     1      31.847  27.121  41.878  1.00  0.00     0.083 A 
ENDROOT
BRANCH  10  11
HETATM   11  O1  UNL     1      32.603  26.668  42.919  1.00  0.00    -0.317 OA
BRANCH  11  12
HETATM   12  C17 UNL     1      34.026  26.912  42.872  1.00  0.00     0.298 C 
HETATM   13  C18 UNL     1      34.658  27.932  43.870  1.00  0.00     0.205 C 
HETATM   14  C19 UNL     1      36.152  27.613  44.099  1.00  0.00     0.183 C 
HETATM   15  C20 UNL     1      36.783  26.932  42.872  1.00  0.00     0.189 C 
HETATM   16  C21 UNL     1      36.014  25.643  42.525  1.00  0.00     0.253 C 
HETATM   17  O4  UNL     1      34.671  25.644  43.040  1.00  0.00    -0.340 OA
BRANCH  13  18
HETATM   18  O5  UNL     1      34.557  29.274  43.360  1.00  0.00    -0.388 OA
HETATM   19  H26 UNL     1      34.575  29.209  42.388  1.00  0.00     0.210 HD
ENDBRANCH  13  18
BRANCH  14  20
HETATM   20  O7  UNL     1      36.331  26.806  45.269  1.00  0.00    -0.390 OA
HETATM   21  H28 UNL     1      37.093  26.202  45.128  1.00  0.00     0.210 HD
ENDBRANCH  14  20
BRANCH  15  22
HETATM   22  O6  UNL     1      36.745  27.805  41.728  1.00  0.00    -0.390 OA
HETATM   23  H27 UNL     1      37.482  28.443  41.796  1.00  0.00     0.210 HD
ENDBRANCH  15  22
BRANCH  16  24
HETATM   24  C22 UNL     1      36.777  24.454  43.092  1.00  0.00     0.172 C 
HETATM   25  O8  UNL     1      37.755  23.919  42.593  1.00  0.00    -0.648 OA
BRANCH  24  26
HETATM   26  O9  UNL     1      36.305  24.027  44.286  1.00  0.00    -0.774 OA
HETATM   27  H29 UNL     1      35.707  23.285  44.047  1.00  0.00     0.167 HD
ENDBRANCH  24  26
ENDBRANCH  16  24
ENDBRANCH  11  12
ENDBRANCH  10  11
BRANCH   7  28
HETATM   28  O2  UNL     1      29.404  28.543  38.820  1.00  0.00    -0.348 OA
BRANCH  28  29
HETATM   29  C11 UNL     1      29.196  29.949  38.687  1.00  0.00     0.209 C 
BRANCH  29  30
HETATM   30  C12 UNL     1      30.050  30.489  37.532  1.00  0.00     0.170 C 
BRANCH  30  31
HETATM   31  C13 UNL     1      29.979  29.648  36.225  1.00  0.00     0.303 C 
BRANCH  31  32
HETATM   32  N1  UNL     1      30.836  28.464  36.118  1.00  0.00     0.089 N 
HETATM   33  H12 UNL     1      30.661  27.795  36.865  1.00  0.00     0.316 HD
BRANCH  32  34
HETATM   34  C14 UNL     1      30.911  27.815  34.811  1.00  0.00     0.212 C 
HETATM   35  C15 UNL     1      29.905  28.356  33.800  1.00  0.00     0.042 C 
HETATM   36  C16 UNL     1      30.666  26.319  35.031  1.00  0.00     0.042 C 
ENDBRANCH  32  34
ENDBRANCH  31  32
ENDBRANCH  30  31
BRANCH  30  37
HETATM   37  O3  UNL     1      29.700  31.856  37.301  1.00  0.00    -0.392 OA
HETATM   38  H13 UNL     1      29.746  32.008  36.339  1.00  0.00     0.210 HD
ENDBRANCH  30  37
ENDBRANCH  29  30
ENDBRANCH  28  29
ENDBRANCH   7  28
TORSDOF 14
