REMARK  8 active torsions:
REMARK  status: ('A' for Active; 'I' for Inactive)
REMARK    1  A    between atoms: C1_1  and  C2_2 
REMARK       I    between atoms: C1_1  and  N1_4 
REMARK    2  A    between atoms: N1_4  and  C11_15 
REMARK    3  A    between atoms: N3_6  and  C9_13 
REMARK    4  A    between atoms: C9_13  and  C10_14 
REMARK    5  A    between atoms: C10_14  and  C16_22 
REMARK    6  A    between atoms: C11_15  and  C12_16 
REMARK    7  A    between atoms: C11_15  and  C13_17 
REMARK       I    between atoms: C13_17  and  N4_18 
REMARK    8  A    between atoms: C16_22  and  C17_23 
ROOT
HETATM    1  C2  UNL     1      31.004  27.959  39.373  1.00  0.00     0.157 A 
HETATM    2  N2  UNL     1      31.373  28.361  40.604  1.00  0.00    -0.166 NA
HETATM    3  N3  UNL     1      31.662  27.222  41.257  1.00  0.00    -0.268 N 
HETATM    4  C3  UNL     1      31.511  26.088  40.501  1.00  0.00     0.065 A 
HETATM    5  C4  UNL     1      31.056  26.534  39.262  1.00  0.00     0.028 A 
HETATM    6  C5  UNL     1      31.714  24.729  40.788  1.00  0.00     0.032 A 
HETATM    7  C6  UNL     1      31.429  23.804  39.780  1.00  0.00     0.002 A 
HETATM    8  C7  UNL     1      30.952  24.220  38.541  1.00  0.00     0.001 A 
HETATM    9  C8  UNL     1      30.756  25.579  38.268  1.00  0.00     0.016 A 
ENDROOT
BRANCH   1  10
HETATM   10  C1  UNL     1      30.621  28.940  38.346  1.00  0.00     0.273 C 
HETATM   11  O1  UNL     1      30.932  28.835  37.161  1.00  0.00    -0.266 OA
HETATM   12  N1  UNL     1      29.861  29.999  38.812  1.00  0.00    -0.342 N 
HETATM   13  H10 UNL     1      29.801  30.123  39.814  1.00  0.00     0.163 HD
BRANCH  12  14
HETATM   14  C11 UNL     1      29.622  31.170  37.974  1.00  0.00     0.184 C 
BRANCH  14  15
HETATM   15  C12 UNL     1      28.170  31.219  37.408  1.00  0.00    -0.022 C 
HETATM   16  C14 UNL     1      27.250  30.345  38.289  1.00  0.00     0.017 C 
HETATM   17  C15 UNL     1      27.593  32.647  37.372  1.00  0.00     0.017 C 
HETATM   18  C19 UNL     1      28.133  30.642  35.978  1.00  0.00     0.017 C 
ENDBRANCH  14  15
BRANCH  14  19
HETATM   19  C13 UNL     1      29.985  32.394  38.843  1.00  0.00     0.239 C 
HETATM   20  N4  UNL     1      30.871  33.277  38.295  1.00  0.00    -0.368 N 
HETATM   21  H18 UNL     1      31.192  34.007  38.920  1.00  0.00     0.159 HD
HETATM   22  H19 UNL     1      31.542  32.951  37.611  1.00  0.00     0.159 HD
HETATM   23  O2  UNL     1      29.503  32.603  39.955  1.00  0.00    -0.271 OA
ENDBRANCH  14  19
ENDBRANCH  12  14
ENDBRANCH   1  10
BRANCH   3  24
HETATM   24  C9  UNL     1      32.105  27.298  42.637  1.00  0.00     0.151 C 
BRANCH  24  25
HETATM   25  C10 UNL     1      33.622  27.438  42.792  1.00  0.00     0.022 C 
BRANCH  25  26
HETATM   26  C16 UNL     1      34.327  26.094  42.998  1.00  0.00     0.001 C 
BRANCH  26  27
HETATM   27  C17 UNL     1      35.749  26.064  42.430  1.00  0.00    -0.004 C 
HETATM   28  C18 UNL     1      35.816  26.370  40.942  1.00  0.00     0.005 C 
ENDBRANCH  26  27
ENDBRANCH  25  26
ENDBRANCH  24  25
ENDBRANCH   3  24
TORSDOF 8
