REMARK  1 active torsions:
REMARK  status: ('A' for Active; 'I' for Inactive)
REMARK    1  A    between atoms: C17_17  and  O2_23 
ROOT
HETATM    1  C1  UNL     1      30.780  25.557  41.799  1.00  0.00     0.084 C 
HETATM    2  C2  UNL     1      31.065  24.617  40.658  1.00  0.00     0.149 C 
HETATM    3  C3  UNL     1      31.277  25.200  39.314  1.00  0.00     0.053 C 
HETATM    4  C4  UNL     1      31.110  26.512  39.074  1.00  0.00    -0.068 C 
HETATM    5  C5  UNL     1      30.596  27.510  40.121  1.00  0.00    -0.016 C 
HETATM    6  C6  UNL     1      29.957  26.743  41.317  1.00  0.00     0.022 C 
HETATM    7  C7  UNL     1      31.463  27.072  37.717  1.00  0.00     0.035 C 
HETATM    8  C8  UNL     1      30.340  27.922  37.138  1.00  0.00     0.010 C 
HETATM    9  C9  UNL     1      29.933  29.041  38.107  1.00  0.00    -0.004 C 
HETATM   10  C10 UNL     1      29.491  28.431  39.474  1.00  0.00     0.002 C 
HETATM   11  C11 UNL     1      28.783  29.880  37.537  1.00  0.00     0.002 C 
HETATM   12  C12 UNL     1      28.353  31.031  38.472  1.00  0.00     0.003 C 
HETATM   13  C13 UNL     1      27.862  30.413  39.794  1.00  0.00     0.014 C 
HETATM   14  C14 UNL     1      28.932  29.513  40.438  1.00  0.00     0.007 C 
HETATM   15  C15 UNL     1      28.981  30.569  36.189  1.00  0.00     0.010 C 
HETATM   16  C16 UNL     1      27.941  31.708  36.172  1.00  0.00     0.052 C 
HETATM   17  C17 UNL     1      27.290  31.741  37.578  1.00  0.00     0.128 C 
HETATM   18  O1  UNL     1      31.196  23.406  40.820  1.00  0.00    -0.293 OA
HETATM   19  C18 UNL     1      25.976  31.061  37.547  1.00  0.00    -0.078 C 
HETATM   20  C19 UNL     1      24.902  30.524  37.516  1.00  0.00     0.015 C 
HETATM   21  C20 UNL     1      31.801  28.328  40.638  1.00  0.00     0.020 C 
HETATM   22  C21 UNL     1      29.502  32.032  38.796  1.00  0.00     0.020 C 
ENDROOT
BRANCH  17  23
HETATM   23  O2  UNL     1      27.075  33.087  37.974  1.00  0.00    -0.377 OA
HETATM   24  H28 UNL     1      27.299  33.644  37.209  1.00  0.00     0.211 HD
ENDBRANCH  17  23
TORSDOF 1
