REMARK  6 active torsions:
REMARK  status: ('A' for Active; 'I' for Inactive)
REMARK    1  A    between atoms: C3_4  and  C6_8 
REMARK    2  A    between atoms: C7_9  and  C8_10 
REMARK    3  A    between atoms: O1_16  and  C13_17 
REMARK    4  A    between atoms: C14_18  and  O5_24 
REMARK    5  A    between atoms: C15_20  and  O6_25 
REMARK    6  A    between atoms: C16_21  and  O3_22 
ROOT
HETATM    1  C1  UNL     1      29.357  32.760  39.294  1.00  0.00     0.042 C 
HETATM    2  C2  UNL     1      28.058  31.989  39.211  1.00  0.00     0.125 C 
HETATM    3  N1  UNL     1      28.301  30.595  39.560  1.00  0.00    -0.370 N 
HETATM    4  C3  UNL     1      29.532  30.017  39.256  1.00  0.00     0.119 A 
HETATM    5  N2  UNL     1      30.528  30.663  38.734  1.00  0.00    -0.273 N 
HETATM    6  C4  UNL     1      30.365  32.074  38.397  1.00  0.00     0.152 C 
HETATM    7  C5  UNL     1      27.104  29.788  39.761  1.00  0.00     0.151 C 
HETATM    8  C6  UNL     1      29.788  28.572  39.579  1.00  0.00     0.051 A 
HETATM    9  C7  UNL     1      30.659  27.852  38.856  1.00  0.00     0.023 A 
HETATM   10  C13 UNL     1      29.859  30.044  38.043  1.00  0.00     0.172 A 
HETATM   11  C14 UNL     1      31.000  29.090  38.399  1.00  0.00     0.254 A 
HETATM   12  O2  UNL     1      29.107  30.635  38.798  1.00  0.00    -0.648 OA
HETATM   13  C15 UNL     1      30.759  28.314  39.695  1.00  0.00     0.254 A 
HETATM   14  C16 UNL     1      29.297  27.978  39.980  1.00  0.00     0.172 A 
HETATM   15  O4  UNL     1      28.774  28.048  41.085  1.00  0.00    -0.648 OA
ENDROOT
BRANCH   9  16
HETATM   16  C8  UNL     1      30.964  26.475  39.102  1.00  0.00     0.010 A 
HETATM   17  C9  UNL     1      30.685  25.388  38.272  1.00  0.00    -0.044 A 
HETATM   18  C10 UNL     1      31.113  24.146  38.849  1.00  0.00     0.015 A 
HETATM   19  C12 UNL     1      30.027  25.480  36.931  1.00  0.00     0.049 C 
HETATM   20  C11 UNL     1      31.691  24.309  40.084  1.00  0.00     0.051 A 
HETATM   21  S1  UNL     1      31.720  25.941  40.560  1.00  0.00    -0.102 SA
ENDBRANCH   9  16
BRANCH  11  22
HETATM   22  O5  UNL     1      31.247  28.171  37.321  1.00  0.00    -0.382 OA
HETATM   23  H21 UNL     1      32.191  28.285  37.091  1.00  0.00     0.210 HD
ENDBRANCH  11  22
BRANCH  13  24
HETATM   24  O6  UNL     1      31.305  29.055  40.800  1.00  0.00    -0.382 OA
HETATM   25  H22 UNL     1      31.380  28.426  41.546  1.00  0.00     0.210 HD
ENDBRANCH  13  24
BRANCH  14  26
HETATM   26  O3  UNL     1      28.608  27.504  38.929  1.00  0.00    -0.774 OA
HETATM   27  H20 UNL     1      28.554  26.538  39.093  1.00  0.00     0.167 HD
ENDBRANCH  14  26
BRANCH  10  28
HETATM   28  O1  UNL     1      29.768  30.235  36.703  1.00  0.00    -0.774 OA
HETATM   29  H17 UNL     1      30.302  31.044  36.547  1.00  0.00     0.167 HD
ENDBRANCH  10  28
TORSDOF 6
