REMARK  8 active torsions:
REMARK  status: ('A' for Active; 'I' for Inactive)
REMARK    1  A    between atoms: C1_1  and  O2_10 
REMARK    2  A    between atoms: C4_4  and  C7_7 
REMARK    3  A    between atoms: C6_6  and  O3_15 
REMARK    4  A    between atoms: O2_10  and  C9_11 
REMARK    5  A    between atoms: C9_11  and  C10_12 
REMARK    6  A    between atoms: C10_12  and  C11_13 
REMARK    7  A    between atoms: C11_13  and  N1_14 
REMARK    8  A    between atoms: C15_19  and  C18_22 
ROOT
HETATM    1  N1  UNL     1      30.802  25.988  38.516  1.00  0.00     0.088 N 
HETATM    2  C13 UNL     1      30.239  27.063  39.324  1.00  0.00     0.273 C 
HETATM    3  C14 UNL     1      31.362  27.785  40.077  1.00  0.00     0.041 C 
HETATM    4  C15 UNL     1      32.480  26.831  40.542  1.00  0.00     0.044 C 
HETATM    5  C16 UNL     1      31.951  25.399  40.665  1.00  0.00     0.041 C 
HETATM    6  C17 UNL     1      31.377  24.908  39.329  1.00  0.00     0.273 C 
ENDROOT
BRANCH   1   7
HETATM    7  C11 UNL     1      29.919  25.497  37.451  1.00  0.00     0.274 C 
BRANCH   7   8
HETATM    8  C10 UNL     1      30.239  25.982  36.027  1.00  0.00     0.057 C 
BRANCH   8   9
HETATM    9  C9  UNL     1      31.310  27.072  36.035  1.00  0.00     0.177 C 
BRANCH   9  10
HETATM   10  O2  UNL     1      30.876  28.148  35.206  1.00  0.00    -0.348 OA
BRANCH  10  11
HETATM   11  C1  UNL     1      30.169  29.159  35.807  1.00  0.00     0.102 A 
HETATM   12  C2  UNL     1      30.432  29.634  37.095  1.00  0.00     0.040 A 
HETATM   13  C3  UNL     1      29.654  30.658  37.645  1.00  0.00     0.018 A 
HETATM   14  C4  UNL     1      28.601  31.209  36.911  1.00  0.00     0.012 A 
HETATM   15  C5  UNL     1      28.328  30.725  35.622  1.00  0.00     0.054 A 
HETATM   16  C6  UNL     1      29.102  29.701  35.066  1.00  0.00     0.102 A 
BRANCH  14  17
HETATM   17  C7  UNL     1      27.741  32.305  37.454  1.00  0.00     0.155 C 
HETATM   18  O1  UNL     1      27.745  32.545  38.660  1.00  0.00    -0.293 OA
HETATM   19  C8  UNL     1      26.882  33.098  36.505  1.00  0.00     0.096 C 
ENDBRANCH  14  17
BRANCH  16  20
HETATM   20  O3  UNL     1      28.909  29.172  33.814  1.00  0.00    -0.353 OA
HETATM   21  C12 UNL     1      28.727  30.081  32.736  1.00  0.00     0.210 C 
ENDBRANCH  16  20
ENDBRANCH  10  11
ENDBRANCH   9  10
ENDBRANCH   8   9
ENDBRANCH   7   8
ENDBRANCH   1   7
BRANCH   4  22
HETATM   22  C18 UNL     1      33.144  27.315  41.796  1.00  0.00     0.079 A 
HETATM   23  N2  UNL     1      32.421  27.851  42.792  1.00  0.00    -0.131 NA
HETATM   24  O4  UNL     1      33.329  28.190  43.781  1.00  0.00    -0.212 OA
HETATM   25  C19 UNL     1      34.585  27.862  43.378  1.00  0.00     0.116 A 
HETATM   26  C20 UNL     1      34.528  27.299  42.114  1.00  0.00     0.027 A 
HETATM   27  C21 UNL     1      35.754  28.055  44.105  1.00  0.00     0.082 A 
HETATM   28  C24 UNL     1      35.726  26.886  41.502  1.00  0.00     0.019 A 
HETATM   29  C23 UNL     1      36.926  27.067  42.205  1.00  0.00     0.043 A 
HETATM   30  C22 UNL     1      36.926  27.639  43.476  1.00  0.00     0.119 A 
HETATM   31  F1  UNL     1      38.094  27.795  44.115  1.00  0.00    -0.206 F 
ENDBRANCH   4  22
TORSDOF 8
