REMARK  3 active torsions:
REMARK  status: ('A' for Active; 'I' for Inactive)
REMARK    1  A    between atoms: C3_3  and  N2_14 
REMARK       I    between atoms: N2_14  and  C11_15 
REMARK       I    between atoms: C11_15  and  N3_16 
REMARK    2  A    between atoms: N3_16  and  C12_18 
REMARK    3  A    between atoms: C15_21  and  N4_24 
ROOT
HETATM    1  N2  UNL     1      31.337  29.160  40.350  1.00  0.00    -0.308 N 
HETATM    2  C11 UNL     1      32.128  28.022  40.464  1.00  0.00     0.325 C 
HETATM    3  N3  UNL     1      33.045  28.188  41.493  1.00  0.00    -0.309 N 
HETATM    4  O1  UNL     1      32.026  27.024  39.764  1.00  0.00    -0.247 OA
HETATM    5  H7  UNL     1      31.307  29.719  41.185  1.00  0.00     0.170 HD
HETATM    6  H8  UNL     1      33.226  29.141  41.772  1.00  0.00     0.170 HD
ENDROOT
BRANCH   1   7
HETATM    7  C3  UNL     1      30.393  29.456  39.329  1.00  0.00     0.051 A 
HETATM    8  C2  UNL     1      29.150  30.066  39.665  1.00  0.00     0.026 A 
HETATM    9  C1  UNL     1      28.265  30.363  38.598  1.00  0.00     0.108 A 
HETATM   10  C9  UNL     1      28.734  30.388  40.984  1.00  0.00     0.058 A 
HETATM   11  N1  UNL     1      28.567  30.093  37.316  1.00  0.00    -0.250 NA
HETATM   12  C6  UNL     1      27.036  30.958  38.895  1.00  0.00     0.148 A 
HETATM   13  C5  UNL     1      29.751  29.521  37.019  1.00  0.00     0.033 A 
HETATM   14  C4  UNL     1      30.682  29.195  37.990  1.00  0.00     0.057 A 
HETATM   15  C10 UNL     1      30.040  29.243  35.575  1.00  0.00     0.070 C 
HETATM   16  C7  UNL     1      26.641  31.271  40.191  1.00  0.00     0.087 A 
HETATM   17  F1  UNL     1      26.180  31.253  37.900  1.00  0.00    -0.203 F 
HETATM   18  C8  UNL     1      27.498  30.980  41.228  1.00  0.00     0.120 A 
HETATM   19  F2  UNL     1      27.144  31.267  42.486  1.00  0.00    -0.206 F 
ENDBRANCH   1   7
BRANCH   3  20
HETATM   20  C12 UNL     1      33.927  27.219  42.012  1.00  0.00     0.036 A 
HETATM   21  C13 UNL     1      34.984  26.807  41.202  1.00  0.00     0.032 A 
HETATM   22  C14 UNL     1      35.906  25.852  41.656  1.00  0.00     0.031 A 
HETATM   23  C15 UNL     1      35.814  25.266  42.930  1.00  0.00     0.029 A 
HETATM   24  C16 UNL     1      34.757  25.722  43.733  1.00  0.00     0.031 A 
HETATM   25  C17 UNL     1      33.826  26.675  43.287  1.00  0.00     0.032 A 
BRANCH  23  26
HETATM   26  N4  UNL     1      36.752  24.325  43.372  1.00  0.00    -0.390 N 
HETATM   27  C18 UNL     1      37.614  23.706  42.361  1.00  0.00     0.149 C 
HETATM   28  C19 UNL     1      36.420  23.473  44.514  1.00  0.00     0.149 C 
ENDBRANCH  23  26
ENDBRANCH   3  20
TORSDOF 3
