REMARK  8 active torsions:
REMARK  status: ('A' for Active; 'I' for Inactive)
REMARK    1  A    between atoms: C6_6  and  N1_7 
REMARK       I    between atoms: N1_7  and  C7_8 
REMARK    2  A    between atoms: N1_7  and  C8_9 
REMARK    3  A    between atoms: C7_8  and  C9_10 
REMARK    4  A    between atoms: C9_10  and  O2_12 
REMARK    5  A    between atoms: N2_15  and  C14_18 
REMARK    6  A    between atoms: C12_16  and  C13_17 
REMARK    7  A    between atoms: C14_18  and  C15_19 
REMARK    8  A    between atoms: C15_19  and  C16_20 
ROOT
HETATM    1  C8  UNL     1      30.577  28.677  39.077  1.00  0.00     0.096 A 
HETATM    2  C10 UNL     1      29.937  27.333  39.321  1.00  0.00     0.056 A 
HETATM    3  C11 UNL     1      30.953  26.394  39.936  1.00  0.00     0.274 A 
HETATM    4  N2  UNL     1      31.749  27.022  40.939  1.00  0.00     0.088 N 
HETATM    5  C12 UNL     1      31.079  28.193  41.472  1.00  0.00     0.274 A 
HETATM    6  C13 UNL     1      31.073  29.253  40.395  1.00  0.00     0.056 A 
HETATM    7 CL1  UNL     1      31.169  27.560  40.249  1.00  0.00    -0.145 Cl
HETATM    8  H31 UNL     1      30.730  28.457  39.306  1.00  0.00     0.145 HD
ENDROOT
BRANCH   1   9
HETATM    9  N1  UNL     1      29.725  29.612  38.387  1.00  0.00    -0.311 N 
HETATM   10  C7  UNL     1      29.733  29.702  36.982  1.00  0.00     0.248 C 
HETATM   11  O1  UNL     1      30.527  28.943  36.333  1.00  0.00    -0.271 OA
BRANCH   9  12
HETATM   12  C6  UNL     1      28.869  30.433  39.180  1.00  0.00     0.038 A 
HETATM   13  C1  UNL     1      29.263  31.669  39.635  1.00  0.00     0.030 A 
HETATM   14  C2  UNL     1      28.377  32.396  40.401  1.00  0.00     0.003 A 
HETATM   15  C3  UNL     1      27.133  31.894  40.699  1.00  0.00     0.007 A 
HETATM   16  C4  UNL     1      26.699  30.660  40.263  1.00  0.00    -0.060 A 
HETATM   17  C5  UNL     1      27.593  29.947  39.500  1.00  0.00     0.036 A 
HETATM   18  C23 UNL     1      25.341  30.121  40.597  1.00  0.00     0.048 C 
ENDBRANCH   9  12
BRANCH  10  19
HETATM   19  C9  UNL     1      28.883  30.618  36.204  1.00  0.00     0.270 C 
BRANCH  19  20
HETATM   20  O2  UNL     1      28.721  30.239  34.892  1.00  0.00    -0.387 OA
HETATM   21  C22 UNL     1      27.938  31.124  34.202  1.00  0.00     0.202 C 
ENDBRANCH  19  20
ENDBRANCH  10  19
ENDBRANCH   1   9
BRANCH   4  22
HETATM   22  C14 UNL     1      32.082  26.163  42.050  1.00  0.00     0.277 C 
BRANCH  22  23
HETATM   23  C15 UNL     1      33.472  25.611  41.990  1.00  0.00     0.068 C 
BRANCH  23  24
HETATM   24  C16 UNL     1      34.316  26.318  42.989  1.00  0.00    -0.057 A 
HETATM   25  C17 UNL     1      34.086  27.611  43.402  1.00  0.00     0.007 A 
HETATM   26  C18 UNL     1      34.914  28.206  44.346  1.00  0.00     0.001 A 
HETATM   27  C19 UNL     1      35.994  27.552  44.914  1.00  0.00     0.000 A 
HETATM   28  C20 UNL     1      36.220  26.263  44.498  1.00  0.00     0.001 A 
HETATM   29  C21 UNL     1      35.406  25.646  43.557  1.00  0.00     0.007 A 
ENDBRANCH  23  24
ENDBRANCH  22  23
ENDBRANCH   4  22
TORSDOF 8
