REMARK  10 active torsions:
REMARK  status: ('A' for Active; 'I' for Inactive)
REMARK    1  A    between atoms: C2_2  and  O1_7 
REMARK    2  A    between atoms: C5_5  and  C8_10 
REMARK    3  A    between atoms: C8_10  and  N1_11 
REMARK    4  A    between atoms: N1_11  and  C9_12 
REMARK    5  A    between atoms: C10_14  and  N4_18 
REMARK    6  A    between atoms: C12_17  and  C13_19 
REMARK       I    between atoms: C13_19  and  N5_20 
REMARK    7  A    between atoms: N5_20  and  C14_22 
REMARK    8  A    between atoms: C14_22  and  C15_23 
REMARK    9  A    between atoms: C19_27  and  C20_28 
REMARK   10  A    between atoms: C20_28  and  O3_29 
ROOT
HETATM    1  C9  UNL     1      30.646  27.798  38.808  1.00  0.00     0.140 A 
HETATM    2  N2  UNL     1      29.788  28.790  38.483  1.00  0.00    -0.050 NA
HETATM    3  C10 UNL     1      29.499  29.742  39.387  1.00  0.00     0.726 A 
HETATM    4  N3  UNL     1      30.046  29.765  40.611  1.00  0.00    -0.074 NA
HETATM    5  C11 UNL     1      30.918  28.785  40.916  1.00  0.00     0.157 A 
HETATM    6  C12 UNL     1      31.271  27.783  40.045  1.00  0.00     0.090 A 
ENDROOT
BRANCH   1   7
HETATM    7  N1  UNL     1      30.993  26.850  37.828  1.00  0.00    -0.272 NA
HETATM    8  H9  UNL     1      30.164  26.290  37.602  1.00  0.00     0.129 HD
BRANCH   7   9
HETATM    9  C8  UNL     1      31.653  27.347  36.629  1.00  0.00     0.132 C 
BRANCH   9  10
HETATM   10  C5  UNL     1      30.746  27.258  35.423  1.00  0.00    -0.043 A 
HETATM   11  C4  UNL     1      30.325  28.418  34.760  1.00  0.00     0.035 A 
HETATM   12  C3  UNL     1      29.470  28.333  33.656  1.00  0.00     0.068 A 
HETATM   13  C2  UNL     1      29.012  27.089  33.193  1.00  0.00     0.089 A 
HETATM   14 CL1  UNL     1      29.002  29.811  32.886  1.00  0.00    -0.081 Cl
HETATM   15  C1  UNL     1      29.426  25.931  33.863  1.00  0.00     0.039 A 
HETATM   16  C6  UNL     1      30.282  26.016  34.967  1.00  0.00     0.011 A 
BRANCH  13  17
HETATM   17  O1  UNL     1      28.178  27.098  32.105  1.00  0.00    -0.354 OA
HETATM   18  C7  UNL     1      26.836  26.682  32.301  1.00  0.00     0.210 C 
ENDBRANCH  13  17
ENDBRANCH   9  10
ENDBRANCH   7   9
ENDBRANCH   1   7
BRANCH   6  19
HETATM   19  C13 UNL     1      32.195  26.711  40.454  1.00  0.00     0.256 C 
HETATM   20  N5  UNL     1      33.408  27.112  40.960  1.00  0.00    -0.350 N 
HETATM   21  H11 UNL     1      33.735  28.065  40.834  1.00  0.00     0.163 HD
HETATM   22  O2  UNL     1      31.863  25.535  40.326  1.00  0.00    -0.267 OA
BRANCH  20  23
HETATM   23  C14 UNL     1      34.452  26.156  41.313  1.00  0.00     0.203 C 
BRANCH  23  24
HETATM   24  C15 UNL     1      35.523  26.771  42.198  1.00  0.00     0.142 A 
HETATM   25  N6  UNL     1      36.557  27.408  41.594  1.00  0.00    -0.244 NA
HETATM   26  C21 UNL     1      37.490  27.941  42.409  1.00  0.00     0.120 A 
HETATM   27  C22 UNL     1      37.425  27.878  43.781  1.00  0.00     0.038 A 
HETATM   28  C23 UNL     1      36.328  27.226  44.296  1.00  0.00     0.120 A 
HETATM   29  N7  UNL     1      35.365  26.672  43.533  1.00  0.00    -0.244 NA
ENDBRANCH  23  24
ENDBRANCH  20  23
ENDBRANCH   6  19
BRANCH   3  30
HETATM   30  N4  UNL     1      28.571  30.708  39.051  1.00  0.00    -0.207 N 
HETATM   31  C16 UNL     1      27.269  30.243  38.572  1.00  0.00     0.142 C 
HETATM   32  C17 UNL     1      26.990  31.106  37.342  1.00  0.00     0.022 C 
HETATM   33  C18 UNL     1      27.725  32.398  37.651  1.00  0.00     0.030 C 
HETATM   34  C19 UNL     1      29.021  31.898  38.307  1.00  0.00     0.126 C 
BRANCH  34  35
HETATM   35  C20 UNL     1      29.633  32.952  39.243  1.00  0.00     0.190 C 
BRANCH  35  36
HETATM   36  O3  UNL     1      30.850  33.469  38.702  1.00  0.00    -0.399 OA
HETATM   37  H23 UNL     1      30.569  34.213  38.131  1.00  0.00     0.209 HD
ENDBRANCH  35  36
ENDBRANCH  34  35
ENDBRANCH   3  30
TORSDOF 10
