REMARK  7 active torsions:
REMARK  status: ('A' for Active; 'I' for Inactive)
REMARK    1  A    between atoms: C7_8  and  O3_13 
REMARK    2  A    between atoms: O3_13  and  C11_14 
REMARK    3  A    between atoms: C12_15  and  N1_20 
REMARK    4  A    between atoms: C13_16  and  O7_26 
REMARK    5  A    between atoms: C14_17  and  O8_27 
REMARK    6  A    between atoms: C15_18  and  C18_24 
REMARK       I    between atoms: N1_20  and  C16_21 
REMARK    7  A    between atoms: C18_24  and  O6_25 
ROOT
HETATM    1  C11 UNL     1      30.981  27.674  39.730  1.00  0.00     0.292 C 
HETATM    2  C12 UNL     1      30.832  28.955  38.859  1.00  0.00     0.171 C 
HETATM    3  C13 UNL     1      30.333  28.610  37.436  1.00  0.00     0.177 C 
HETATM    4  C14 UNL     1      30.615  27.151  37.076  1.00  0.00     0.180 C 
HETATM    5  C15 UNL     1      29.964  26.209  38.119  1.00  0.00     0.179 C 
HETATM    6  O4  UNL     1      29.906  26.779  39.445  1.00  0.00    -0.349 OA
ENDROOT
BRANCH   1   7
HETATM    7  O3  UNL     1      30.943  28.086  41.111  1.00  0.00    -0.318 OA
BRANCH   7   8
HETATM    8  C7  UNL     1      32.073  27.793  41.823  1.00  0.00     0.074 A 
HETATM    9  C6  UNL     1      33.002  26.821  41.457  1.00  0.00     0.075 A 
HETATM   10  C1  UNL     1      34.119  26.608  42.271  1.00  0.00     0.092 A 
HETATM   11  C2  UNL     1      34.334  27.327  43.451  1.00  0.00     0.004 A 
HETATM   12  O1  UNL     1      35.030  25.617  41.839  1.00  0.00    -0.275 OA
HETATM   13  C3  UNL     1      35.541  27.049  44.242  1.00  0.00    -0.043 A 
HETATM   14  C9  UNL     1      33.373  28.274  43.819  1.00  0.00     0.017 A 
HETATM   15  C4  UNL     1      36.387  26.106  43.800  1.00  0.00     0.090 A 
HETATM   16  C10 UNL     1      35.802  27.803  45.511  1.00  0.00     0.049 C 
HETATM   17  C5  UNL     1      36.173  25.333  42.565  1.00  0.00     0.288 A 
HETATM   18  O2  UNL     1      36.975  24.470  42.223  1.00  0.00    -0.260 OA
HETATM   19  C8  UNL     1      32.246  28.503  43.013  1.00  0.00     0.038 A 
ENDBRANCH   7   8
ENDBRANCH   1   7
BRANCH   2  20
HETATM   20  N1  UNL     1      29.936  29.948  39.485  1.00  0.00    -0.349 N 
HETATM   21  C16 UNL     1      29.992  31.280  39.160  1.00  0.00     0.214 C 
HETATM   22  O5  UNL     1      30.682  31.708  38.237  1.00  0.00    -0.274 OA
HETATM   23  C17 UNL     1      29.162  32.168  40.043  1.00  0.00     0.117 C 
HETATM   24  H13 UNL     1      29.505  29.664  40.365  1.00  0.00     0.163 HD
ENDBRANCH   2  20
BRANCH   3  25
HETATM   25  O7  UNL     1      30.999  29.443  36.467  1.00  0.00    -0.391 OA
HETATM   26  H20 UNL     1      31.888  29.636  36.846  1.00  0.00     0.210 HD
ENDBRANCH   3  25
BRANCH   5  27
HETATM   27  C18 UNL     1      30.599  24.801  38.179  1.00  0.00     0.198 C 
BRANCH  27  28
HETATM   28  O6  UNL     1      31.748  24.750  39.037  1.00  0.00    -0.398 OA
HETATM   29  H19 UNL     1      32.527  24.877  38.453  1.00  0.00     0.209 HD
ENDBRANCH  27  28
ENDBRANCH   5  27
BRANCH   4  30
HETATM   30  O8  UNL     1      32.045  26.980  37.000  1.00  0.00    -0.390 OA
HETATM   31  H21 UNL     1      32.333  26.924  37.941  1.00  0.00     0.210 HD
ENDBRANCH   4  30
TORSDOF 7
