REMARK  7 active torsions:
REMARK  status: ('A' for Active; 'I' for Inactive)
REMARK    1  A    between atoms: C1_1  and  N2_20 
REMARK    2  A    between atoms: C12_13  and  N1_15 
REMARK    3  A    between atoms: N1_15  and  C14_16 
REMARK    4  A    between atoms: N1_15  and  C15_17 
REMARK    5  A    between atoms: N2_20  and  C18_21 
REMARK    6  A    between atoms: N2_20  and  C19_22 
REMARK    7  A    between atoms: N3_28  and  N4_34 
ROOT
HETATM    1  C1  UNL     1      32.387  27.579  41.000  1.00  0.00     0.032 A 
HETATM    2  C2  UNL     1      31.746  28.591  41.723  1.00  0.00     0.030 A 
HETATM    3  C3  UNL     1      30.810  29.441  41.119  1.00  0.00     0.015 A 
HETATM    4  C4  UNL     1      30.478  29.306  39.759  1.00  0.00     0.015 A 
HETATM    5  C5  UNL     1      31.107  28.297  39.034  1.00  0.00     0.087 A 
HETATM    6  C6  UNL     1      32.040  27.450  39.646  1.00  0.00     0.067 A 
HETATM    7  C7  UNL     1      29.435  30.187  39.082  1.00  0.00     0.139 A 
HETATM    8  C8  UNL     1      29.381  29.974  37.577  1.00  0.00     0.015 A 
HETATM    9  C9  UNL     1      30.078  28.920  36.998  1.00  0.00     0.087 A 
HETATM   10  O1  UNL     1      30.863  28.044  37.708  1.00  0.00    -0.309 OA
HETATM   11  C10 UNL     1      28.618  30.784  36.726  1.00  0.00     0.015 A 
HETATM   12  C11 UNL     1      28.563  30.537  35.345  1.00  0.00     0.030 A 
HETATM   13  C12 UNL     1      29.258  29.479  34.739  1.00  0.00     0.032 A 
HETATM   14  C13 UNL     1      30.013  28.681  35.614  1.00  0.00     0.067 A 
HETATM   15  C22 UNL     1      28.060  29.967  39.710  1.00  0.00    -0.003 A 
HETATM   16  C23 UNL     1      27.606  31.144  40.312  1.00  0.00     0.043 A 
HETATM   17  C24 UNL     1      28.615  32.193  40.129  1.00  0.00     0.270 A 
HETATM   18  N3  UNL     1      29.661  31.615  39.417  1.00  0.00    -0.256 N 
HETATM   19  C25 UNL     1      27.277  28.821  39.752  1.00  0.00     0.011 A 
HETATM   20  C26 UNL     1      26.043  28.885  40.407  1.00  0.00     0.001 A 
HETATM   21  C27 UNL     1      25.602  30.078  41.008  1.00  0.00     0.001 A 
HETATM   22  C28 UNL     1      26.390  31.229  40.965  1.00  0.00     0.018 A 
HETATM   23  O2  UNL     1      28.526  33.336  40.537  1.00  0.00    -0.266 OA
ENDROOT
BRANCH  18  24
HETATM   24  N4  UNL     1      30.803  32.358  39.039  1.00  0.00    -0.243 NA
HETATM   25  H31 UNL     1      31.556  31.681  38.873  1.00  0.00     0.143 HD
HETATM   26  H32 UNL     1      30.613  32.767  38.121  1.00  0.00     0.143 HD
ENDBRANCH  18  24
BRANCH   1  27
HETATM   27  N2  UNL     1      33.326  26.703  41.568  1.00  0.00    -0.382 N 
BRANCH  27  28
HETATM   28  C18 UNL     1      34.677  27.276  41.729  1.00  0.00     0.118 C 
HETATM   29  C21 UNL     1      35.750  26.461  41.018  1.00  0.00     0.026 C 
ENDBRANCH  27  28
BRANCH  27  30
HETATM   30  C19 UNL     1      32.847  25.765  42.596  1.00  0.00     0.118 C 
HETATM   31  C20 UNL     1      31.348  25.519  42.489  1.00  0.00     0.026 C 
ENDBRANCH  27  30
ENDBRANCH   1  27
BRANCH  13  32
HETATM   32  N1  UNL     1      29.202  29.238  33.369  1.00  0.00    -0.382 N 
BRANCH  32  33
HETATM   33  C14 UNL     1      29.540  27.924  32.803  1.00  0.00     0.118 C 
HETATM   34  C17 UNL     1      28.372  26.956  32.899  1.00  0.00     0.026 C 
ENDBRANCH  32  33
BRANCH  32  35
HETATM   35  C15 UNL     1      28.831  30.288  32.408  1.00  0.00     0.118 C 
HETATM   36  C16 UNL     1      27.369  30.191  31.993  1.00  0.00     0.026 C 
ENDBRANCH  32  35
ENDBRANCH  13  32
TORSDOF 7
