REMARK  0 active torsions:
REMARK  status: ('A' for Active; 'I' for Inactive)
ROOT
HETATM    1  C1  UNL     1      34.950  25.356  41.491  1.00  0.00     0.084 C 
HETATM    2  C2  UNL     1      35.169  25.754  42.927  1.00  0.00     0.149 C 
HETATM    3  C3  UNL     1      34.283  26.773  43.531  1.00  0.00     0.054 C 
HETATM    4  C4  UNL     1      33.205  27.278  42.897  1.00  0.00    -0.063 C 
HETATM    5  C5  UNL     1      32.812  26.797  41.484  1.00  0.00    -0.016 C 
HETATM    6  C6  UNL     1      34.111  26.381  40.735  1.00  0.00     0.022 C 
HETATM    7  C7  UNL     1      32.438  28.379  43.517  1.00  0.00     0.020 A 
HETATM    8  C8  UNL     1      31.252  28.987  42.815  1.00  0.00    -0.001 A 
HETATM    9  C9  UNL     1      30.829  28.473  41.460  1.00  0.00     0.001 C 
HETATM   10  C10 UNL     1      32.098  27.962  40.695  1.00  0.00     0.003 C 
HETATM   11  C11 UNL     1      30.152  29.549  40.612  1.00  0.00     0.006 C 
HETATM   12  C12 UNL     1      29.683  29.019  39.222  1.00  0.00    -0.007 C 
HETATM   13  C13 UNL     1      30.994  28.721  38.462  1.00  0.00     0.013 C 
HETATM   14  C14 UNL     1      31.833  27.652  39.194  1.00  0.00     0.007 C 
HETATM   15  C15 UNL     1      29.007  30.338  41.189  1.00  0.00    -0.002 A 
HETATM   16  C16 UNL     1      28.190  30.799  40.017  1.00  0.00     0.027 A 
HETATM   17  C17 UNL     1      28.785  30.211  38.725  1.00  0.00     0.083 C 
HETATM   18  O1  UNL     1      27.722  29.782  37.870  1.00  0.00    -0.309 OA
HETATM   19  C18 UNL     1      27.417  30.773  36.983  1.00  0.00     0.259 C 
HETATM   20  C19 UNL     1      28.364  31.922  37.139  1.00  0.00     0.114 C 
HETATM   21  C20 UNL     1      29.498  31.283  37.910  1.00  0.00     0.050 C 
HETATM   22  O2  UNL     1      26.488  30.725  36.192  1.00  0.00    -0.265 OA
HETATM   23  O3  UNL     1      36.053  25.244  43.613  1.00  0.00    -0.293 OA
HETATM   24  C21 UNL     1      31.897  25.553  41.613  1.00  0.00     0.020 C 
HETATM   25  C22 UNL     1      28.858  27.699  39.211  1.00  0.00     0.019 C 
HETATM   26  C23 UNL     1      27.548  29.992  41.122  1.00  0.00     0.013 A 
HETATM   27  C24 UNL     1      31.054  28.131  44.044  1.00  0.00     0.015 A 
ENDROOT
TORSDOF 0
