REMARK  8 active torsions:
REMARK  status: ('A' for Active; 'I' for Inactive)
REMARK    1  A    between atoms: C4_4  and  N1_8 
REMARK    2  A    between atoms: N1_8  and  C7_9 
REMARK    3  A    between atoms: C7_9  and  N2_10 
REMARK    4  A    between atoms: N2_10  and  C8_12 
REMARK    5  A    between atoms: C8_12  and  N3_13 
REMARK    6  A    between atoms: C8_12  and  C9_14 
REMARK       I    between atoms: N3_13  and  C10_18 
REMARK    7  A    between atoms: C10_18  and  C11_19 
REMARK    8  A    between atoms: C12_21  and  C13_22 
ROOT
HETATM    1  C8  UNL     1      31.469  27.847  40.117  1.00  0.00     0.241 C 
ENDROOT
BRANCH   1   2
HETATM    2  N2  UNL     1      31.921  27.092  38.944  1.00  0.00    -0.342 N 
HETATM    3  H6  UNL     1      32.793  26.587  39.035  1.00  0.00     0.164 HD
BRANCH   2   4
HETATM    4  C7  UNL     1      31.260  26.814  37.782  1.00  0.00     0.173 C 
HETATM    5  S1  UNL     1      30.300  25.448  37.806  1.00  0.00    -0.041 SA
BRANCH   4   6
HETATM    6  N1  UNL     1      31.499  27.669  36.738  1.00  0.00    -0.333 N 
HETATM    7  H5  UNL     1      32.431  27.602  36.350  1.00  0.00     0.168 HD
BRANCH   6   8
HETATM    8  C4  UNL     1      30.594  28.377  35.914  1.00  0.00     0.034 A 
HETATM    9  C3  UNL     1      30.461  27.942  34.588  1.00  0.00     0.031 A 
HETATM   10  C2  UNL     1      29.609  28.604  33.700  1.00  0.00     0.026 A 
HETATM   11  C1  UNL     1      28.896  29.720  34.130  1.00  0.00     0.034 A 
HETATM   12  C6  UNL     1      29.039  30.179  35.436  1.00  0.00     0.026 A 
HETATM   13 CL1  UNL     1      27.847  30.539  33.041  1.00  0.00    -0.084 Cl
HETATM   14  C5  UNL     1      29.893  29.514  36.322  1.00  0.00     0.031 A 
ENDBRANCH   6   8
ENDBRANCH   4   6
ENDBRANCH   2   4
ENDBRANCH   1   2
BRANCH   1  15
HETATM   15  N3  UNL     1      30.072  28.173  39.862  1.00  0.00    -0.332 N 
HETATM   16  C10 UNL     1      29.545  29.372  40.267  1.00  0.00     0.242 C 
HETATM   17  O1  UNL     1      30.208  30.256  40.792  1.00  0.00    -0.269 OA
HETATM   18  H8  UNL     1      29.460  27.445  39.521  1.00  0.00     0.165 HD
BRANCH  16  19
HETATM   19  C11 UNL     1      28.088  29.483  40.020  1.00  0.00     0.075 C 
HETATM   20  C12 UNL     1      27.643  30.288  39.043  1.00  0.00     0.017 C 
BRANCH  20  21
HETATM   21  C13 UNL     1      26.223  30.450  38.707  1.00  0.00    -0.036 A 
HETATM   22  C14 UNL     1      25.792  30.747  37.407  1.00  0.00     0.011 A 
HETATM   23  C15 UNL     1      24.429  30.869  37.121  1.00  0.00     0.001 A 
HETATM   24  C16 UNL     1      23.485  30.684  38.130  1.00  0.00     0.000 A 
HETATM   25  C17 UNL     1      23.902  30.372  39.421  1.00  0.00     0.001 A 
HETATM   26  C18 UNL     1      25.264  30.249  39.707  1.00  0.00     0.011 A 
ENDBRANCH  20  21
ENDBRANCH  16  19
ENDBRANCH   1  15
BRANCH   1  27
HETATM   27  C9  UNL     1      31.712  27.091  41.492  1.00  0.00     0.226 C 
HETATM   28 CL2  UNL     1      33.127  25.981  41.341  1.00  0.00    -0.080 Cl
HETATM   29 CL3  UNL     1      32.061  28.265  42.813  1.00  0.00    -0.080 Cl
HETATM   30 CL4  UNL     1      30.301  26.108  42.003  1.00  0.00    -0.080 Cl
ENDBRANCH   1  27
TORSDOF 8
