REMARK  5 active torsions:
REMARK  status: ('A' for Active; 'I' for Inactive)
REMARK    1  A    between atoms: C2_2  and  C4_4 
REMARK    2  A    between atoms: C2_2  and  C21_28 
REMARK    3  A    between atoms: C14_16  and  C15_17 
REMARK    4  A    between atoms: C16_18  and  C23_30 
REMARK    5  A    between atoms: C23_30  and  C24_31 
ROOT
HETATM    1  C4  UNL     1      29.399  29.426  38.646  1.00  0.00     0.035 C 
HETATM    2  C5  UNL     1      28.133  29.900  39.335  1.00  0.00    -0.024 A 
HETATM    3  C6  UNL     1      26.826  29.941  38.868  1.00  0.00     0.010 A 
HETATM    4  C7  UNL     1      25.825  30.444  39.702  1.00  0.00     0.001 A 
HETATM    5  C8  UNL     1      26.130  30.876  40.999  1.00  0.00     0.002 A 
HETATM    6  C9  UNL     1      27.438  30.790  41.477  1.00  0.00     0.024 A 
HETATM    7  C10 UNL     1      28.427  30.305  40.636  1.00  0.00     0.017 A 
HETATM    8  N1  UNL     1      29.742  30.028  41.027  1.00  0.00    -0.270 NA
HETATM    9  C11 UNL     1      30.450  29.633  39.811  1.00  0.00     0.180 C 
HETATM   10  N2  UNL     1      30.997  28.332  40.072  1.00  0.00    -0.315 N 
HETATM   11  C12 UNL     1      32.047  28.125  40.930  1.00  0.00     0.272 C 
HETATM   12  C13 UNL     1      32.438  26.659  41.109  1.00  0.00     0.105 C 
HETATM   13  C14 UNL     1      33.342  26.160  41.980  1.00  0.00     0.067 C 
HETATM   14  O1  UNL     1      32.680  29.056  41.421  1.00  0.00    -0.266 OA
HETATM   15  C18 UNL     1      30.054  27.308  39.699  1.00  0.00     0.182 C 
HETATM   16  C19 UNL     1      30.760  25.989  39.437  1.00  0.00     0.245 C 
HETATM   17  N5  UNL     1      31.834  25.740  40.256  1.00  0.00    -0.321 N 
HETATM   18  O2  UNL     1      30.324  25.114  38.693  1.00  0.00    -0.271 OA
HETATM   19  C20 UNL     1      29.360  27.879  38.465  1.00  0.00     0.054 C 
HETATM   20  H11 UNL     1      30.180  30.779  41.551  1.00  0.00     0.130 HD
HETATM   21  H17 UNL     1      32.185  24.791  40.209  1.00  0.00     0.169 HD
ENDROOT
BRANCH  13  22
HETATM   22  C15 UNL     1      34.119  26.769  43.003  1.00  0.00     0.061 A 
HETATM   23  C16 UNL     1      35.495  26.814  43.246  1.00  0.00     0.074 A 
HETATM   24  N3  UNL     1      35.754  27.572  44.373  1.00  0.00    -0.245 NA
HETATM   25  C17 UNL     1      34.589  27.968  44.814  1.00  0.00     0.208 A 
HETATM   26  N4  UNL     1      33.580  27.512  44.022  1.00  0.00    -0.349 N 
HETATM   27  H15 UNL     1      32.593  27.695  44.172  1.00  0.00     0.166 HD
BRANCH  23  28
HETATM   28  C23 UNL     1      36.655  26.192  42.468  1.00  0.00     0.016 C 
HETATM   29  C26 UNL     1      37.985  26.913  42.795  1.00  0.00     0.026 C 
HETATM   30  C27 UNL     1      36.398  26.370  40.954  1.00  0.00     0.026 C 
BRANCH  28  31
HETATM   31  C24 UNL     1      36.850  24.734  42.894  1.00  0.00    -0.022 C 
HETATM   32  C25 UNL     1      36.320  24.100  43.951  1.00  0.00     0.008 C 
ENDBRANCH  28  31
ENDBRANCH  23  28
ENDBRANCH  13  22
BRANCH   1  33
HETATM   33  C2  UNL     1      29.799  30.214  37.325  1.00  0.00    -0.016 C 
HETATM   34  C1  UNL     1      30.477  29.280  36.288  1.00  0.00     0.020 C 
HETATM   35  C3  UNL     1      30.815  31.348  37.616  1.00  0.00     0.020 C 
BRANCH  33  36
HETATM   36  C21 UNL     1      28.546  30.780  36.630  1.00  0.00    -0.027 C 
HETATM   37  C22 UNL     1      28.177  30.640  35.348  1.00  0.00     0.007 C 
ENDBRANCH  33  36
ENDBRANCH   1  33
TORSDOF 5
