REMARK  3 active torsions:
REMARK  status: ('A' for Active; 'I' for Inactive)
REMARK    1  A    between atoms: C2_2  and  S1_8 
REMARK    2  A    between atoms: S1_8  and  N1_9 
REMARK    3  A    between atoms: C7_14  and  C8_18 
ROOT
HETATM    1  C1  UNL     1      29.059  29.707  38.801  1.00  0.00     0.058 A 
HETATM    2  C2  UNL     1      29.475  30.478  39.888  1.00  0.00     0.097 A 
HETATM    3  C3  UNL     1      30.284  29.908  40.875  1.00  0.00     0.053 A 
HETATM    4  C4  UNL     1      30.679  28.571  40.749  1.00  0.00     0.097 A 
HETATM    5  C5  UNL     1      30.303  27.776  39.662  1.00  0.00     0.034 A 
HETATM    6  C6  UNL     1      29.465  28.365  38.705  1.00  0.00     0.050 A 
HETATM    7 CL1  UNL     1      28.038  30.303  37.543  1.00  0.00    -0.083 Cl
HETATM    8  S2  UNL     1      31.694  27.864  42.006  1.00  0.00     0.246 S 
HETATM    9  N2  UNL     1      31.376  26.213  41.818  1.00  0.00    -0.191 NA
HETATM   10  C7  UNL     1      31.614  25.823  40.417  1.00  0.00     0.163 C 
HETATM   11  N3  UNL     1      30.578  26.407  39.561  1.00  0.00    -0.273 NA
HETATM   12  O3  UNL     1      31.178  28.299  43.286  1.00  0.00    -0.206 OA
HETATM   13  O4  UNL     1      33.062  28.123  41.612  1.00  0.00    -0.206 OA
HETATM   14  C9  UNL     1      30.112  25.736  42.417  1.00  0.00     0.131 C 
HETATM   15  H6  UNL     1      30.656  26.110  38.589  1.00  0.00     0.129 HD
ENDROOT
BRANCH   2  16
HETATM   16  S1  UNL     1      28.967  32.162  40.015  1.00  0.00     0.241 S 
HETATM   17  O1  UNL     1      27.832  32.368  39.148  1.00  0.00    -0.206 OA
HETATM   18  O2  UNL     1      28.992  32.547  41.406  1.00  0.00    -0.206 OA
BRANCH  16  19
HETATM   19  N1  UNL     1      30.213  33.041  39.302  1.00  0.00    -0.225 NA
HETATM   20  H3  UNL     1      30.650  32.473  38.573  1.00  0.00     0.136 HD
HETATM   21  H4  UNL     1      29.841  33.927  38.951  1.00  0.00     0.136 HD
ENDBRANCH  16  19
ENDBRANCH   2  16
BRANCH  10  22
HETATM   22  C8  UNL     1      31.659  24.293  40.215  1.00  0.00     0.151 C 
HETATM   23 CL2  UNL     1      31.030  23.790  38.623  1.00  0.00    -0.128 Cl
ENDBRANCH  10  22
TORSDOF 3
