REMARK  3 active torsions:
REMARK  status: ('A' for Active; 'I' for Inactive)
REMARK    1  A    between atoms: C2_2  and  O2_19 
REMARK    2  A    between atoms: O2_19  and  S1_20 
REMARK    3  A    between atoms: S1_20  and  O3_21 
ROOT
HETATM    1  C1  UNL     1      27.484  30.604  40.408  1.00  0.00     0.039 A 
HETATM    2  C2  UNL     1      27.190  30.148  39.132  1.00  0.00     0.091 A 
HETATM    3  C3  UNL     1      28.086  29.330  38.452  1.00  0.00     0.045 A 
HETATM    4  C4  UNL     1      29.282  28.922  39.066  1.00  0.00    -0.049 A 
HETATM    5  C5  UNL     1      29.570  29.330  40.387  1.00  0.00    -0.047 A 
HETATM    6  C6  UNL     1      28.666  30.196  41.031  1.00  0.00     0.011 A 
HETATM    7  C7  UNL     1      30.198  28.010  38.284  1.00  0.00     0.039 C 
HETATM    8  C8  UNL     1      31.589  27.854  38.892  1.00  0.00     0.010 C 
HETATM    9  C9  UNL     1      31.475  27.639  40.401  1.00  0.00    -0.000 A 
HETATM   10  C10 UNL     1      30.884  28.928  41.054  1.00  0.00     0.024 A 
HETATM   11  C11 UNL     1      32.820  27.342  41.063  1.00  0.00     0.006 A 
HETATM   12  C12 UNL     1      32.650  27.048  42.568  1.00  0.00     0.021 C 
HETATM   13  C13 UNL     1      32.144  28.321  43.238  1.00  0.00     0.018 C 
HETATM   14  C14 UNL     1      30.826  28.804  42.601  1.00  0.00     0.011 C 
HETATM   15  C15 UNL     1      33.687  26.194  40.555  1.00  0.00     0.013 C 
HETATM   16  C16 UNL     1      34.771  26.083  41.638  1.00  0.00     0.079 C 
HETATM   17  C17 UNL     1      34.079  26.637  42.873  1.00  0.00     0.135 C 
HETATM   18  O1  UNL     1      34.606  26.714  43.975  1.00  0.00    -0.297 OA
HETATM   19  C18 UNL     1      31.762  25.842  42.926  1.00  0.00     0.024 C 
HETATM   20  C19 UNL     1      31.966  28.276  40.965  1.00  0.00     0.299 A 
HETATM   21  C20 UNL     1      31.094  27.070  41.395  1.00  0.00     0.299 A 
HETATM   22  N1  UNL     1      29.928  26.867  40.526  1.00  0.00     0.086 N 
HETATM   23  C21 UNL     1      29.101  28.087  40.496  1.00  0.00     0.299 A 
HETATM   24  C22 UNL     1      29.915  29.404  40.443  1.00  0.00     0.299 A 
HETATM   25  N2  UNL     1      31.309  29.195  40.012  1.00  0.00     0.086 N 
HETATM   26  H27 UNL     1      29.370  26.085  40.866  1.00  0.00     0.315 HD
HETATM   27  H32 UNL     1      31.250  28.679  39.131  1.00  0.00     0.315 HD
ENDROOT
BRANCH   2  28
HETATM   28  O2  UNL     1      26.042  30.526  38.491  1.00  0.00    -0.221 OA
BRANCH  28  29
HETATM   29  S1  UNL     1      26.160  31.345  37.081  1.00  0.00     0.245 S 
HETATM   30  O4  UNL     1      27.121  32.417  37.237  1.00  0.00    -0.579 OA
HETATM   31  O5  UNL     1      26.273  30.384  36.007  1.00  0.00    -0.579 OA
BRANCH  29  32
HETATM   32  O3  UNL     1      24.722  32.069  36.929  1.00  0.00    -0.273 OA
HETATM   33  H19 UNL     1      24.064  31.383  36.694  1.00  0.00     0.234 HD
ENDBRANCH  29  32
ENDBRANCH  28  29
ENDBRANCH   2  28
TORSDOF 3
