REMARK  7 active torsions:
REMARK  status: ('A' for Active; 'I' for Inactive)
REMARK    1  A    between atoms: C2_2  and  C7_8 
REMARK    2  A    between atoms: C5_5  and  O1_7 
REMARK    3  A    between atoms: C7_8  and  C8_9 
REMARK    4  A    between atoms: C7_8  and  O3_24 
REMARK    5  A    between atoms: C8_9  and  N1_10 
REMARK    6  A    between atoms: C11_13  and  C14_16 
REMARK    7  A    between atoms: C11_13  and  O2_22 
ROOT
HETATM    1  N1  UNL     1      31.763  27.631  41.181  1.00  0.00     0.095 N 
HETATM    2  C9  UNL     1      30.814  26.734  40.474  1.00  0.00     0.276 C 
HETATM    3  C10 UNL     1      29.675  27.466  39.749  1.00  0.00     0.073 C 
HETATM    4  C11 UNL     1      30.113  28.864  39.297  1.00  0.00     0.088 C 
HETATM    5  C12 UNL     1      30.516  29.687  40.535  1.00  0.00     0.073 C 
HETATM    6  C13 UNL     1      31.063  28.820  41.682  1.00  0.00     0.276 C 
ENDROOT
BRANCH   1   7
HETATM    7  C8  UNL     1      32.536  26.865  42.225  1.00  0.00     0.252 C 
HETATM    8  C20 UNL     1      31.616  25.735  42.734  1.00  0.00     0.046 C 
BRANCH   7   9
HETATM    9  C7  UNL     1      33.922  26.265  41.769  1.00  0.00     0.184 C 
BRANCH   9  10
HETATM   10  C2  UNL     1      35.138  26.823  42.488  1.00  0.00    -0.027 A 
HETATM   11  C1  UNL     1      35.072  27.188  43.844  1.00  0.00     0.012 A 
HETATM   12  C6  UNL     1      36.193  27.704  44.500  1.00  0.00     0.037 A 
HETATM   13  C5  UNL     1      37.383  27.858  43.799  1.00  0.00     0.065 A 
HETATM   14  C4  UNL     1      37.469  27.507  42.457  1.00  0.00     0.037 A 
HETATM   15  C3  UNL     1      36.350  26.992  41.800  1.00  0.00     0.012 A 
BRANCH  13  16
HETATM   16  O1  UNL     1      38.501  28.357  44.397  1.00  0.00    -0.361 OA
HETATM   17  H5  UNL     1      38.505  29.322  44.293  1.00  0.00     0.217 HD
ENDBRANCH  13  16
ENDBRANCH   9  10
BRANCH   9  18
HETATM   18  O3  UNL     1      34.136  26.519  40.370  1.00  0.00    -0.389 OA
HETATM   19  H25 UNL     1      34.781  25.860  40.058  1.00  0.00     0.210 HD
ENDBRANCH   9  18
ENDBRANCH   7   9
ENDBRANCH   1   7
BRANCH   4  20
HETATM   20  C14 UNL     1      29.078  29.634  38.477  1.00  0.00    -0.024 A 
HETATM   21  C15 UNL     1      29.355  30.152  37.201  1.00  0.00     0.010 A 
HETATM   22  C16 UNL     1      28.372  30.822  36.466  1.00  0.00     0.001 A 
HETATM   23  C17 UNL     1      27.092  30.984  36.988  1.00  0.00     0.000 A 
HETATM   24  C18 UNL     1      26.792  30.473  38.246  1.00  0.00     0.001 A 
HETATM   25  C19 UNL     1      27.773  29.803  38.980  1.00  0.00     0.010 A 
ENDBRANCH   4  20
BRANCH   4  26
HETATM   26  O2  UNL     1      31.276  28.695  38.463  1.00  0.00    -0.385 OA
HETATM   27  H21 UNL     1      31.263  27.759  38.181  1.00  0.00     0.211 HD
ENDBRANCH   4  26
TORSDOF 7
