REMARK  8 active torsions:
REMARK  status: ('A' for Active; 'I' for Inactive)
REMARK    1  A    between atoms: C1_1  and  N1_2 
REMARK    2  A    between atoms: N1_2  and  C2_3 
REMARK    3  A    between atoms: N1_2  and  C5_6 
REMARK    4  A    between atoms: C5_6  and  C7_8 
REMARK    5  A    between atoms: C7_8  and  O1_9 
REMARK    6  A    between atoms: C9_12  and  C10_13 
REMARK    7  A    between atoms: C9_12  and  C11_14 
REMARK    8  A    between atoms: C9_12  and  O3_15 
ROOT
HETATM    1  O1  UNL     1      33.328  27.836  42.176  1.00  0.00    -0.317 OA
HETATM    2  C8  UNL     1      31.966  27.931  42.359  1.00  0.00     0.298 A 
HETATM    3  O2  UNL     1      31.464  28.016  43.475  1.00  0.00    -0.261 OA
HETATM    4  C9  UNL     1      31.217  27.844  40.994  1.00  0.00     0.176 A 
HETATM    5 BR1  UNL     1      31.661  27.189  42.854  1.00  0.00     0.000 Br
ENDROOT
BRANCH   4   6
HETATM    6  C10 UNL     1      29.800  28.497  41.084  1.00  0.00     0.035 C 
HETATM    7  C12 UNL     1      29.836  30.038  40.960  1.00  0.00     0.008 C 
HETATM    8  C13 UNL     1      28.452  30.659  41.148  1.00  0.00     0.001 C 
HETATM    9  C14 UNL     1      27.428  30.064  40.188  1.00  0.00     0.000 C 
HETATM   10  C15 UNL     1      27.385  28.545  40.292  1.00  0.00     0.001 C 
HETATM   11  C16 UNL     1      28.769  27.929  40.087  1.00  0.00     0.008 C 
ENDBRANCH   4   6
BRANCH   4  12
HETATM   12  C11 UNL     1      31.230  26.411  40.454  1.00  0.00    -0.014 A 
HETATM   13  C17 UNL     1      31.111  26.159  39.075  1.00  0.00     0.011 A 
HETATM   14  C18 UNL     1      31.125  24.854  38.577  1.00  0.00     0.001 A 
HETATM   15  C19 UNL     1      31.246  23.776  39.448  1.00  0.00     0.000 A 
HETATM   16  C20 UNL     1      31.344  23.999  40.818  1.00  0.00     0.001 A 
HETATM   17  C21 UNL     1      31.334  25.304  41.317  1.00  0.00     0.011 A 
ENDBRANCH   4  12
BRANCH   4  18
HETATM   18  O3  UNL     1      32.013  28.688  40.124  1.00  0.00    -0.374 OA
HETATM   19  H19 UNL     1      31.658  29.592  40.206  1.00  0.00     0.211 HD
ENDBRANCH   4  18
BRANCH   1  20
HETATM   20  C7  UNL     1      34.103  27.999  43.375  1.00  0.00     0.206 C 
BRANCH  20  21
HETATM   21  C5  UNL     1      35.568  28.346  43.047  1.00  0.00     0.263 C 
BRANCH  21  22
HETATM   22  N1  UNL     1      36.632  27.462  43.767  1.00  0.00    -0.070 N 
HETATM   23  C6  UNL     1      36.210  27.237  45.224  1.00  0.00     0.272 C 
BRANCH  22  24
HETATM   24  C1  UNL     1      37.977  28.233  43.801  1.00  0.00     0.232 C 
HETATM   25  C4  UNL     1      38.777  28.142  42.511  1.00  0.00     0.035 C 
ENDBRANCH  22  24
BRANCH  22  26
HETATM   26  C2  UNL     1      36.742  26.107  43.019  1.00  0.00     0.232 C 
HETATM   27  C3  UNL     1      36.159  24.934  43.793  1.00  0.00     0.035 C 
ENDBRANCH  22  26
ENDBRANCH  21  22
ENDBRANCH  20  21
ENDBRANCH   1  20
TORSDOF 8
