REMARK  18 active torsions:
REMARK  status: ('A' for Active; 'I' for Inactive)
REMARK    1  A    between atoms: C2_2  and  C3_3 
REMARK    2  A    between atoms: C3_3  and  C4_4 
REMARK    3  A    between atoms: C4_4  and  C5_5 
REMARK    4  A    between atoms: C5_5  and  C6_6 
REMARK    5  A    between atoms: C6_6  and  C7_7 
REMARK    6  A    between atoms: C7_7  and  C8_8 
REMARK    7  A    between atoms: C8_8  and  C9_9 
REMARK    8  A    between atoms: C9_9  and  C10_10 
REMARK    9  A    between atoms: C10_10  and  C11_11 
REMARK   10  A    between atoms: C11_11  and  C12_12 
REMARK   11  A    between atoms: C12_12  and  C13_13 
REMARK   12  A    between atoms: C13_13  and  C14_14 
REMARK   13  A    between atoms: C14_14  and  C15_15 
REMARK   14  A    between atoms: C15_15  and  C16_16 
REMARK   15  A    between atoms: C16_16  and  C17_17 
REMARK   16  A    between atoms: C16_16  and  O1_18 
REMARK   17  A    between atoms: C17_17  and  C18_19 
REMARK   18  A    between atoms: C18_19  and  O3_21 
ROOT
HETATM    1  C12 UNL     1      31.566  24.691  39.532  1.00  0.00     0.000 C 
ENDROOT
BRANCH   1   2
HETATM    2  C11 UNL     1      31.307  24.334  40.997  1.00  0.00     0.000 C 
BRANCH   2   3
HETATM    3  C10 UNL     1      31.034  25.589  41.832  1.00  0.00     0.000 C 
BRANCH   3   4
HETATM    4  C9  UNL     1      32.211  25.908  42.754  1.00  0.00     0.000 C 
BRANCH   4   5
HETATM    5  C8  UNL     1      32.849  27.273  42.477  1.00  0.00     0.000 C 
BRANCH   5   6
HETATM    6  C7  UNL     1      33.752  27.350  41.240  1.00  0.00     0.000 C 
BRANCH   6   7
HETATM    7  C6  UNL     1      34.812  26.246  41.194  1.00  0.00     0.000 C 
BRANCH   7   8
HETATM    8  C5  UNL     1      36.224  26.765  41.487  1.00  0.00     0.000 C 
BRANCH   8   9
HETATM    9  C4  UNL     1      36.913  26.101  42.684  1.00  0.00     0.000 C 
BRANCH   9  10
HETATM   10  C3  UNL     1      36.032  25.979  43.927  1.00  0.00    -0.000 C 
BRANCH  10  11
HETATM   11  C2  UNL     1      35.880  27.326  44.634  1.00  0.00    -0.005 C 
HETATM   12  C1  UNL     1      36.265  27.230  46.102  1.00  0.00     0.005 C 
ENDBRANCH  10  11
ENDBRANCH   9  10
ENDBRANCH   8   9
ENDBRANCH   7   8
ENDBRANCH   6   7
ENDBRANCH   5   6
ENDBRANCH   4   5
ENDBRANCH   3   4
ENDBRANCH   2   3
ENDBRANCH   1   2
BRANCH   1  13
HETATM   13  C13 UNL     1      30.696  25.845  39.021  1.00  0.00     0.000 C 
BRANCH  13  14
HETATM   14  C14 UNL     1      31.443  26.991  38.335  1.00  0.00     0.002 C 
BRANCH  14  15
HETATM   15  C15 UNL     1      31.075  28.415  38.775  1.00  0.00     0.032 C 
BRANCH  15  16
HETATM   16  C16 UNL     1      30.242  29.260  37.796  1.00  0.00     0.127 C 
BRANCH  16  17
HETATM   17  C17 UNL     1      29.049  29.977  38.418  1.00  0.00     0.142 C 
BRANCH  17  18
HETATM   18  C18 UNL     1      29.421  31.341  38.932  1.00  0.00     0.260 C 
HETATM   19  O2  UNL     1      29.946  31.548  40.016  1.00  0.00    -0.265 OA
BRANCH  18  20
HETATM   20  O3  UNL     1      29.101  32.297  38.016  1.00  0.00    -0.326 OA
HETATM   21  C19 UNL     1      27.760  32.208  37.531  1.00  0.00     0.213 C 
ENDBRANCH  18  20
ENDBRANCH  17  18
ENDBRANCH  16  17
BRANCH  16  22
HETATM   22  O1  UNL     1      31.088  30.222  37.164  1.00  0.00    -0.395 OA
HETATM   23  H35 UNL     1      32.003  29.894  37.211  1.00  0.00     0.210 HD
ENDBRANCH  16  22
ENDBRANCH  15  16
ENDBRANCH  14  15
ENDBRANCH  13  14
ENDBRANCH   1  13
TORSDOF 18
