REMARK  7 active torsions:
REMARK  status: ('A' for Active; 'I' for Inactive)
REMARK    1  A    between atoms: C1_1  and  O2_9 
REMARK    2  A    between atoms: C2_2  and  C19_24 
REMARK    3  A    between atoms: C3_3  and  O3_11 
REMARK    4  A    between atoms: C4_4  and  O4_13 
REMARK    5  A    between atoms: C5_5  and  C11_15 
REMARK    6  A    between atoms: C6_6  and  O1_7 
REMARK    7  A    between atoms: C16_21  and  O5_33 
ROOT
HETATM    1  C1  UNL     1      31.663  26.480  39.596  1.00  0.00     0.116 A 
HETATM    2  C2  UNL     1      32.004  27.090  40.820  1.00  0.00     0.049 A 
HETATM    3  C3  UNL     1      31.541  28.397  41.081  1.00  0.00     0.116 A 
HETATM    4  C4  UNL     1      30.784  29.103  40.122  1.00  0.00     0.116 A 
HETATM    5  C5  UNL     1      30.501  28.518  38.873  1.00  0.00     0.049 A 
HETATM    6  C6  UNL     1      30.929  27.196  38.628  1.00  0.00     0.116 A 
ENDROOT
BRANCH   5   7
HETATM    7  C11 UNL     1      29.835  29.274  37.817  1.00  0.00     0.008 A 
HETATM    8  C12 UNL     1      28.524  29.845  37.798  1.00  0.00     0.006 A 
HETATM    9  C13 UNL     1      28.362  30.466  36.558  1.00  0.00     0.043 A 
HETATM   10  C15 UNL     1      27.458  29.895  38.721  1.00  0.00     0.051 A 
HETATM   11  N1  UNL     1      29.531  30.278  35.856  1.00  0.00    -0.364 N 
HETATM   12  C18 UNL     1      27.187  31.137  36.193  1.00  0.00     0.033 A 
HETATM   13  C14 UNL     1      30.421  29.549  36.597  1.00  0.00     0.101 A 
HETATM   14  H13 UNL     1      29.700  30.633  34.925  1.00  0.00     0.165 HD
HETATM   15  C17 UNL     1      26.145  31.173  37.124  1.00  0.00     0.039 A 
HETATM   16  C16 UNL     1      26.285  30.560  38.365  1.00  0.00     0.066 A 
BRANCH  16  17
HETATM   17  O5  UNL     1      25.275  30.589  39.283  1.00  0.00    -0.361 OA
HETATM   18  H24 UNL     1      25.011  31.512  39.424  1.00  0.00     0.217 HD
ENDBRANCH  16  17
ENDBRANCH   5   7
BRANCH   4  19
HETATM   19  O4  UNL     1      30.444  30.403  40.425  1.00  0.00    -0.352 OA
HETATM   20  C10 UNL     1      29.256  30.498  41.210  1.00  0.00     0.210 C 
ENDBRANCH   4  19
BRANCH   6  21
HETATM   21  O1  UNL     1      30.710  26.663  37.376  1.00  0.00    -0.352 OA
HETATM   22  C7  UNL     1      29.621  25.744  37.359  1.00  0.00     0.210 C 
ENDBRANCH   6  21
BRANCH   3  23
HETATM   23  O3  UNL     1      31.945  29.009  42.248  1.00  0.00    -0.352 OA
HETATM   24  C9  UNL     1      31.239  28.527  43.388  1.00  0.00     0.210 C 
ENDBRANCH   3  23
BRANCH   1  25
HETATM   25  O2  UNL     1      32.113  25.227  39.242  1.00  0.00    -0.352 OA
HETATM   26  C8  UNL     1      31.325  24.176  39.800  1.00  0.00     0.210 C 
ENDBRANCH   1  25
BRANCH   2  27
HETATM   27  C19 UNL     1      32.875  26.421  41.780  1.00  0.00     0.008 A 
HETATM   28  C20 UNL     1      34.302  26.442  41.878  1.00  0.00     0.003 A 
HETATM   29  C21 UNL     1      34.654  25.635  42.963  1.00  0.00     0.043 A 
HETATM   30  C23 UNL     1      35.330  27.072  41.148  1.00  0.00     0.014 A 
HETATM   31  N2  UNL     1      33.485  25.150  43.501  1.00  0.00    -0.364 N 
HETATM   32  C26 UNL     1      35.983  25.428  43.353  1.00  0.00     0.030 A 
HETATM   33  C22 UNL     1      32.406  25.602  42.790  1.00  0.00     0.101 A 
HETATM   34  H18 UNL     1      33.438  24.544  44.309  1.00  0.00     0.165 HD
HETATM   35  C25 UNL     1      36.982  26.064  42.610  1.00  0.00     0.002 A 
HETATM   36  C24 UNL     1      36.664  26.874  41.523  1.00  0.00     0.001 A 
ENDBRANCH   2  27
TORSDOF 7
