REMARK  7 active torsions:
REMARK  status: ('A' for Active; 'I' for Inactive)
REMARK    1  A    between atoms: C3_3  and  C15_19 
REMARK    2  A    between atoms: C5_6  and  C7_9 
REMARK    3  A    between atoms: C9_11  and  O4_17 
REMARK    4  A    between atoms: C10_12  and  O3_15 
REMARK    5  A    between atoms: C17_21  and  O7_29 
REMARK    6  A    between atoms: C18_22  and  O5_25 
REMARK    7  A    between atoms: C19_23  and  O6_27 
ROOT
HETATM    1  C1  UNL     1      32.098  26.522  40.676  1.00  0.00     0.052 C 
HETATM    2  C2  UNL     1      31.109  27.169  41.606  1.00  0.00     0.052 C 
HETATM    3  C3  UNL     1      29.881  27.395  40.740  1.00  0.00     0.161 C 
HETATM    4  O1  UNL     1      29.905  26.350  39.746  1.00  0.00    -0.380 OA
HETATM    5  C4  UNL     1      31.194  25.713  39.757  1.00  0.00     0.176 C 
HETATM    6  C5  UNL     1      32.963  25.670  41.591  1.00  0.00     0.161 C 
HETATM    7  O2  UNL     1      32.157  25.370  42.750  1.00  0.00    -0.380 OA
HETATM    8  C6  UNL     1      30.918  26.088  42.660  1.00  0.00     0.176 C 
ENDROOT
BRANCH   3   9
HETATM    9  C15 UNL     1      29.759  28.716  40.001  1.00  0.00    -0.024 A 
HETATM   10  C16 UNL     1      29.782  28.687  38.588  1.00  0.00     0.049 A 
HETATM   11  C17 UNL     1      29.669  29.856  37.826  1.00  0.00     0.104 A 
HETATM   12  C18 UNL     1      29.537  31.081  38.490  1.00  0.00     0.135 A 
HETATM   13  C19 UNL     1      29.489  31.126  39.886  1.00  0.00     0.104 A 
HETATM   14  C20 UNL     1      29.625  29.958  40.638  1.00  0.00     0.049 A 
BRANCH  11  15
HETATM   15  O7  UNL     1      29.674  29.905  36.456  1.00  0.00    -0.353 OA
HETATM   16  C23 UNL     1      30.386  28.887  35.766  1.00  0.00     0.210 C 
ENDBRANCH  11  15
BRANCH  12  17
HETATM   17  O5  UNL     1      29.373  32.241  37.771  1.00  0.00    -0.351 OA
HETATM   18  C21 UNL     1      27.994  32.420  37.455  1.00  0.00     0.210 C 
ENDBRANCH  12  17
BRANCH  13  19
HETATM   19  O6  UNL     1      29.373  32.342  40.515  1.00  0.00    -0.353 OA
HETATM   20  C22 UNL     1      28.135  32.433  41.219  1.00  0.00     0.210 C 
ENDBRANCH  13  19
ENDBRANCH   3   9
BRANCH   6  21
HETATM   21  C7  UNL     1      34.244  26.378  41.992  1.00  0.00    -0.026 A 
HETATM   22  C8  UNL     1      34.365  26.896  43.290  1.00  0.00     0.049 A 
HETATM   23  C9  UNL     1      35.539  27.539  43.692  1.00  0.00     0.102 A 
HETATM   24  C10 UNL     1      36.608  27.722  42.803  1.00  0.00     0.101 A 
HETATM   25  C11 UNL     1      36.492  27.204  41.512  1.00  0.00     0.040 A 
HETATM   26  C12 UNL     1      35.325  26.537  41.114  1.00  0.00     0.012 A 
BRANCH  23  27
HETATM   27  O4  UNL     1      35.561  28.040  44.971  1.00  0.00    -0.353 OA
HETATM   28  C14 UNL     1      36.203  27.120  45.853  1.00  0.00     0.210 C 
ENDBRANCH  23  27
BRANCH  24  29
HETATM   29  O3  UNL     1      37.686  28.422  43.275  1.00  0.00    -0.353 OA
HETATM   30  C13 UNL     1      38.913  28.285  42.573  1.00  0.00     0.210 C 
ENDBRANCH  24  29
ENDBRANCH   6  21
TORSDOF 7
