REMARK  6 active torsions:
REMARK  status: ('A' for Active; 'I' for Inactive)
REMARK    1  A    between atoms: C2_2  and  C7_7 
REMARK    2  A    between atoms: C7_7  and  C8_8 
REMARK    3  A    between atoms: C8_8  and  N1_9 
REMARK    4  A    between atoms: C11_12  and  N2_15 
REMARK       I    between atoms: N2_15  and  C14_16 
REMARK    5  A    between atoms: N2_15  and  C15_17 
REMARK    6  A    between atoms: C14_16  and  C21_23 
ROOT
HETATM    1  N1  UNL     1      31.062  26.067  40.748  1.00  0.00     0.088 N 
HETATM    2  C9  UNL     1      30.797  27.396  41.318  1.00  0.00     0.274 C 
HETATM    3  C10 UNL     1      31.201  28.555  40.409  1.00  0.00     0.056 C 
HETATM    4  C11 UNL     1      30.578  28.438  39.002  1.00  0.00     0.096 C 
HETATM    5  C12 UNL     1      29.866  27.092  38.795  1.00  0.00     0.056 C 
HETATM    6  C13 UNL     1      30.756  25.964  39.315  1.00  0.00     0.274 C 
ENDROOT
BRANCH   4   7
HETATM    7  N2  UNL     1      29.716  29.589  38.633  1.00  0.00    -0.310 N 
HETATM    8  C14 UNL     1      29.671  29.989  37.296  1.00  0.00     0.248 C 
HETATM    9  O1  UNL     1      30.096  29.318  36.356  1.00  0.00    -0.268 OA
BRANCH   8  10
HETATM   10  C21 UNL     1      29.133  31.341  36.968  1.00  0.00     0.070 C 
HETATM   11  C22 UNL     1      27.858  31.555  36.609  1.00  0.00    -0.026 C 
HETATM   12  C23 UNL     1      27.290  32.910  36.342  1.00  0.00     0.036 C 
ENDBRANCH   8  10
BRANCH   7  13
HETATM   13  C15 UNL     1      28.780  30.041  39.621  1.00  0.00     0.037 A 
HETATM   14  C16 UNL     1      27.497  29.482  39.696  1.00  0.00     0.030 A 
HETATM   15  C17 UNL     1      26.578  29.924  40.653  1.00  0.00     0.002 A 
HETATM   16  C18 UNL     1      26.928  30.936  41.542  1.00  0.00     0.000 A 
HETATM   17  C19 UNL     1      28.196  31.506  41.476  1.00  0.00     0.002 A 
HETATM   18  C20 UNL     1      29.116  31.064  40.522  1.00  0.00     0.030 A 
ENDBRANCH   7  13
ENDBRANCH   4   7
BRANCH   1  19
HETATM   19  C8  UNL     1      32.408  25.572  41.084  1.00  0.00     0.277 C 
BRANCH  19  20
HETATM   20  C7  UNL     1      32.870  25.991  42.492  1.00  0.00     0.068 C 
BRANCH  20  21
HETATM   21  C2  UNL     1      34.344  26.323  42.516  1.00  0.00    -0.057 A 
HETATM   22  C1  UNL     1      35.065  26.435  41.320  1.00  0.00     0.007 A 
HETATM   23  C6  UNL     1      36.431  26.723  41.343  1.00  0.00     0.001 A 
HETATM   24  C5  UNL     1      37.088  26.897  42.559  1.00  0.00     0.000 A 
HETATM   25  C4  UNL     1      36.380  26.781  43.754  1.00  0.00     0.001 A 
HETATM   26  C3  UNL     1      35.015  26.493  43.735  1.00  0.00     0.007 A 
ENDBRANCH  20  21
ENDBRANCH  19  20
ENDBRANCH   1  19
TORSDOF 6
