REMARK  5 active torsions:
REMARK  status: ('A' for Active; 'I' for Inactive)
REMARK    1  A    between atoms: C6_6  and  N1_7 
REMARK       I    between atoms: N1_7  and  C7_8 
REMARK    2  A    between atoms: N1_7  and  C9_11 
REMARK    3  A    between atoms: C7_8  and  C8_9 
REMARK    4  A    between atoms: C14_17  and  C15_18 
REMARK    5  A    between atoms: C15_18  and  C16_19 
ROOT
HETATM    1  C9  UNL     1      30.796  29.277  38.160  1.00  0.00     0.096 C 
HETATM    2  C10 UNL     1      30.722  30.197  39.342  1.00  0.00     0.045 C 
HETATM    3  C11 UNL     1      30.097  29.574  40.562  1.00  0.00     0.119 A 
HETATM    4  N2  UNL     1      30.677  28.311  40.913  1.00  0.00    -0.412 N 
HETATM    5  C12 UNL     1      31.348  27.614  39.874  1.00  0.00     0.119 C 
HETATM    6  C13 UNL     1      30.600  27.842  38.577  1.00  0.00     0.045 C 
HETATM    7  C14 UNL     1      31.256  28.245  42.207  1.00  0.00     0.121 A 
HETATM    8 CL1  UNL     1      30.921  28.282  40.756  1.00  0.00    -0.145 Cl
HETATM    9  H31 UNL     1      30.463  28.696  39.527  1.00  0.00     0.145 HD
ENDROOT
BRANCH   1  10
HETATM   10  N1  UNL     1      29.907  29.597  37.071  1.00  0.00    -0.313 N 
HETATM   11  C7  UNL     1      30.114  29.039  35.784  1.00  0.00     0.224 C 
HETATM   12  O1  UNL     1      29.248  29.265  34.884  1.00  0.00    -0.273 OA
BRANCH  10  13
HETATM   13  C6  UNL     1      28.742  30.414  37.234  1.00  0.00     0.037 A 
HETATM   14  C1  UNL     1      28.706  31.678  36.768  1.00  0.00     0.030 A 
HETATM   15  C2  UNL     1      27.550  32.448  36.938  1.00  0.00     0.002 A 
HETATM   16  C3  UNL     1      26.457  31.911  37.576  1.00  0.00     0.000 A 
HETATM   17  C4  UNL     1      26.459  30.606  38.069  1.00  0.00     0.002 A 
HETATM   18  C5  UNL     1      27.616  29.892  37.879  1.00  0.00     0.030 A 
ENDBRANCH  10  13
BRANCH  11  19
HETATM   19  C8  UNL     1      31.316  28.221  35.526  1.00  0.00     0.099 C 
HETATM   20  C23 UNL     1      30.933  26.850  34.983  1.00  0.00     0.014 C 
ENDBRANCH  11  19
ENDBRANCH   1  10
BRANCH   7  21
HETATM   21  C15 UNL     1      31.844  26.843  42.391  1.00  0.00     0.058 C 
BRANCH  21  22
HETATM   22  C16 UNL     1      33.194  26.979  43.002  1.00  0.00    -0.056 A 
HETATM   23  C17 UNL     1      34.057  25.916  42.962  1.00  0.00     0.013 A 
HETATM   24  C18 UNL     1      35.328  25.982  43.513  1.00  0.00    -0.061 A 
HETATM   25  C19 UNL     1      35.687  27.175  44.105  1.00  0.00     0.007 A 
HETATM   26  C22 UNL     1      36.260  24.811  43.473  1.00  0.00     0.048 C 
HETATM   27  C20 UNL     1      34.823  28.244  44.146  1.00  0.00     0.001 A 
HETATM   28  C21 UNL     1      33.559  28.187  43.601  1.00  0.00     0.007 A 
ENDBRANCH  21  22
ENDBRANCH   7  21
TORSDOF 5
