REMARK  4 active torsions:
REMARK  status: ('A' for Active; 'I' for Inactive)
REMARK    1  A    between atoms: C3_3  and  N1_7 
REMARK    2  A    between atoms: C6_6  and  N2_9 
REMARK    3  A    between atoms: C12_18  and  C14_21 
REMARK    4  A    between atoms: C14_21  and  O3_22 
ROOT
HETATM    1  C1  UNL     1      31.222  28.181  39.310  1.00  0.00     0.145 A 
HETATM    2  C2  UNL     1      30.271  28.877  38.554  1.00  0.00     0.074 A 
HETATM    3  C3  UNL     1      29.403  29.793  39.154  1.00  0.00     0.042 A 
HETATM    4  C4  UNL     1      29.525  29.975  40.534  1.00  0.00     0.032 A 
HETATM    5  C5  UNL     1      30.482  29.272  41.287  1.00  0.00     0.035 A 
HETATM    6  C6  UNL     1      31.365  28.355  40.697  1.00  0.00     0.074 A 
HETATM    7  F1  UNL     1      31.979  27.287  38.654  1.00  0.00    -0.204 F 
ENDROOT
BRANCH   3   8
HETATM    8  N1  UNL     1      28.439  30.493  38.381  1.00  0.00    -0.291 N 
HETATM    9  C11 UNL     1      27.075  30.586  38.624  1.00  0.00     0.368 C 
HETATM   10  O1  UNL     1      26.488  31.390  37.680  1.00  0.00    -0.294 OA
HETATM   11  O2  UNL     1      26.421  30.084  39.524  1.00  0.00    -0.238 OA
HETATM   12  C12 UNL     1      27.452  31.657  36.651  1.00  0.00     0.175 C 
HETATM   13  C13 UNL     1      28.785  31.358  37.292  1.00  0.00     0.169 C 
BRANCH  12  14
HETATM   14  C14 UNL     1      27.315  33.103  36.197  1.00  0.00     0.198 C 
BRANCH  14  15
HETATM   15  O3  UNL     1      28.257  33.379  35.163  1.00  0.00    -0.398 OA
HETATM   16  H17 UNL     1      28.954  33.937  35.557  1.00  0.00     0.209 HD
ENDBRANCH  14  15
ENDBRANCH  12  14
ENDBRANCH   3   8
BRANCH   6  17
HETATM   17  N2  UNL     1      32.328  27.659  41.451  1.00  0.00    -0.337 N 
HETATM   18  C7  UNL     1      33.050  28.209  42.494  1.00  0.00     0.226 C 
HETATM   19  N3  UNL     1      33.916  27.633  43.275  1.00  0.00    -0.194 NA
HETATM   20  N4  UNL     1      34.125  26.299  43.062  1.00  0.00    -0.210 NA
HETATM   21  C8  UNL     1      33.866  25.765  41.716  1.00  0.00     0.135 C 
HETATM   22  C10 UNL     1      35.380  25.778  43.602  1.00  0.00     0.138 C 
HETATM   23  C9  UNL     1      32.469  26.210  41.259  1.00  0.00     0.146 C 
ENDBRANCH   6  17
TORSDOF 4
