REMARK  8 active torsions:
REMARK  status: ('A' for Active; 'I' for Inactive)
REMARK    1  A    between atoms: C1_1  and  O1_7 
REMARK    2  A    between atoms: O1_7  and  C7_8 
REMARK    3  A    between atoms: C10_11  and  O2_14 
REMARK    4  A    between atoms: O2_14  and  C13_15 
REMARK    5  A    between atoms: C13_15  and  C14_16 
REMARK    6  A    between atoms: C14_16  and  N1_17 
REMARK       I    between atoms: N1_17  and  C15_18 
REMARK    7  A    between atoms: C15_18  and  O3_19 
REMARK    8  A    between atoms: O3_19  and  C16_21 
ROOT
HETATM    1  C7  UNL     1      30.318  27.424  40.012  1.00  0.00     0.076 A 
HETATM    2  C8  UNL     1      29.049  27.999  40.053  1.00  0.00     0.040 A 
HETATM    3  C9  UNL     1      28.685  28.970  39.114  1.00  0.00     0.039 A 
HETATM    4  C10 UNL     1      29.598  29.378  38.140  1.00  0.00     0.069 A 
HETATM    5  C11 UNL     1      30.877  28.813  38.120  1.00  0.00     0.039 A 
HETATM    6  C12 UNL     1      31.244  27.843  39.056  1.00  0.00     0.040 A 
ENDROOT
BRANCH   4   7
HETATM    7  O2  UNL     1      29.375  30.314  37.169  1.00  0.00    -0.350 OA
BRANCH   7   8
HETATM    8  C13 UNL     1      28.065  30.890  37.108  1.00  0.00     0.195 C 
BRANCH   8   9
HETATM    9  C14 UNL     1      28.171  32.365  37.491  1.00  0.00     0.151 C 
BRANCH   9  10
HETATM   10  N1  UNL     1      27.563  32.631  38.778  1.00  0.00    -0.335 N 
HETATM   11  C15 UNL     1      28.271  32.558  39.938  1.00  0.00     0.360 C 
HETATM   12  O4  UNL     1      29.486  32.455  40.021  1.00  0.00    -0.239 OA
HETATM   13  H14 UNL     1      26.564  32.506  38.879  1.00  0.00     0.164 HD
BRANCH  11  14
HETATM   14  O3  UNL     1      27.412  32.603  40.985  1.00  0.00    -0.304 OA
BRANCH  14  15
HETATM   15  C16 UNL     1      27.355  31.392  41.747  1.00  0.00     0.176 C 
HETATM   16  C17 UNL     1      26.330  30.477  41.105  1.00  0.00     0.034 C 
ENDBRANCH  14  15
ENDBRANCH  11  14
ENDBRANCH   9  10
ENDBRANCH   8   9
ENDBRANCH   7   8
ENDBRANCH   4   7
BRANCH   1  17
HETATM   17  O1  UNL     1      30.616  26.501  40.988  1.00  0.00    -0.311 OA
BRANCH  17  18
HETATM   18  C1  UNL     1      31.659  26.791  41.837  1.00  0.00     0.076 A 
HETATM   19  C2  UNL     1      32.735  25.903  41.849  1.00  0.00     0.037 A 
HETATM   20  C3  UNL     1      33.838  26.158  42.663  1.00  0.00     0.003 A 
HETATM   21  C4  UNL     1      33.870  27.308  43.453  1.00  0.00     0.000 A 
HETATM   22  C5  UNL     1      32.804  28.208  43.424  1.00  0.00     0.003 A 
HETATM   23  C6  UNL     1      31.700  27.955  42.609  1.00  0.00     0.037 A 
ENDBRANCH  17  18
ENDBRANCH   1  17
TORSDOF 8
