REMARK  3 active torsions:
REMARK  status: ('A' for Active; 'I' for Inactive)
REMARK    1  A    between atoms: C5_6  and  N2_16 
REMARK       I    between atoms: N2_16  and  C14_17 
REMARK    2  A    between atoms: C14_17  and  C15_19 
REMARK    3  A    between atoms: C15_19  and  N3_20 
ROOT
HETATM    1  C1  UNL     1      29.210  30.547  38.110  1.00  0.00     0.053 A 
HETATM    2  C2  UNL     1      28.287  31.350  37.447  1.00  0.00     0.183 A 
HETATM    3  N1  UNL     1      27.989  31.348  36.141  1.00  0.00    -0.228 NA
HETATM    4  C3  UNL     1      28.657  30.422  35.419  1.00  0.00     0.046 A 
HETATM    5  C4  UNL     1      29.623  29.538  35.937  1.00  0.00    -0.006 A 
HETATM    6  C5  UNL     1      29.934  29.627  37.316  1.00  0.00     0.058 A 
HETATM    7  C6  UNL     1      28.306  30.427  33.950  1.00  0.00     0.060 C 
HETATM    8  C7  UNL     1      28.565  29.099  33.257  1.00  0.00     0.006 C 
HETATM    9  C8  UNL     1      29.976  28.633  33.569  1.00  0.00     0.005 C 
HETATM   10  C9  UNL     1      30.142  28.408  35.070  1.00  0.00     0.043 C 
HETATM   11  C10 UNL     1      29.162  30.954  39.489  1.00  0.00    -0.016 A 
HETATM   12  C11 UNL     1      28.200  31.950  39.552  1.00  0.00     0.058 A 
HETATM   13  O1  UNL     1      27.678  32.191  38.324  1.00  0.00    -0.295 OA
HETATM   14  C12 UNL     1      27.664  32.776  40.655  1.00  0.00     0.077 C 
HETATM   15  C13 UNL     1      29.958  30.443  40.632  1.00  0.00     0.052 C 
ENDROOT
BRANCH   6  16
HETATM   16  N2  UNL     1      30.885  28.787  37.942  1.00  0.00    -0.324 N 
HETATM   17  C14 UNL     1      30.530  27.624  38.615  1.00  0.00     0.240 C 
HETATM   18  O2  UNL     1      29.385  27.189  38.718  1.00  0.00    -0.271 OA
HETATM   19  H15 UNL     1      31.789  28.713  37.480  1.00  0.00     0.169 HD
BRANCH  17  20
HETATM   20  C15 UNL     1      31.729  26.797  39.095  1.00  0.00     0.228 C 
BRANCH  20  21
HETATM   21  N3  UNL     1      31.820  26.673  40.544  1.00  0.00    -0.343 N 
HETATM   22  C16 UNL     1      31.692  25.469  41.211  1.00  0.00     0.220 C 
HETATM   23  C17 UNL     1      32.096  25.681  42.649  1.00  0.00     0.104 C 
HETATM   24  O3  UNL     1      31.402  24.401  40.694  1.00  0.00    -0.273 OA
HETATM   25  C18 UNL     1      32.169  27.200  42.767  1.00  0.00     0.029 C 
HETATM   26  C19 UNL     1      32.487  27.658  41.357  1.00  0.00     0.127 C 
ENDBRANCH  20  21
ENDBRANCH  17  20
ENDBRANCH   6  16
TORSDOF 3
