REMARK  15 active torsions:
REMARK  status: ('A' for Active; 'I' for Inactive)
REMARK    1  A    between atoms: C1_1  and  O1_7 
REMARK    2  A    between atoms: C5_5  and  C8_11 
REMARK    3  A    between atoms: C6_6  and  C7_8 
REMARK    4  A    between atoms: C7_8  and  O2_9 
REMARK    5  A    between atoms: C8_11  and  C9_12 
REMARK    6  A    between atoms: C9_12  and  C10_13 
REMARK    7  A    between atoms: C10_13  and  C11_14 
REMARK    8  A    between atoms: C11_14  and  C12_15 
REMARK    9  A    between atoms: C12_15  and  C13_16 
REMARK   10  A    between atoms: C13_16  and  C14_17 
REMARK   11  A    between atoms: C14_17  and  C15_18 
REMARK   12  A    between atoms: C16_19  and  C17_20 
REMARK   13  A    between atoms: C17_20  and  C18_21 
REMARK   14  A    between atoms: C19_22  and  C20_23 
REMARK   15  A    between atoms: C20_23  and  C21_24 
ROOT
HETATM    1  C9  UNL     1      30.735  28.101  37.823  1.00  0.00     0.005 C 
ENDROOT
BRANCH   1   2
HETATM    2  C8  UNL     1      30.806  29.609  38.098  1.00  0.00     0.040 C 
BRANCH   2   3
HETATM    3  C5  UNL     1      29.697  30.411  37.445  1.00  0.00    -0.038 A 
HETATM    4  C4  UNL     1      29.253  29.977  36.176  1.00  0.00     0.008 A 
HETATM    5  C3  UNL     1      28.221  30.628  35.506  1.00  0.00     0.003 A 
HETATM    6  C2  UNL     1      27.606  31.727  36.090  1.00  0.00     0.037 A 
HETATM    7  C1  UNL     1      28.026  32.176  37.342  1.00  0.00     0.083 A 
HETATM    8  C6  UNL     1      29.077  31.540  38.036  1.00  0.00     0.077 A 
BRANCH   7   9
HETATM    9  O1  UNL     1      27.341  33.267  37.814  1.00  0.00    -0.360 OA
HETATM   10  H4  UNL     1      27.303  33.925  37.089  1.00  0.00     0.217 HD
ENDBRANCH   7   9
BRANCH   8  11
HETATM   11  C7  UNL     1      29.549  32.068  39.355  1.00  0.00     0.179 C 
HETATM   12  O3  UNL     1      29.465  31.543  40.448  1.00  0.00    -0.646 OA
BRANCH  11  13
HETATM   13  O2  UNL     1      30.122  33.289  39.254  1.00  0.00    -0.773 OA
HETATM   14  H5  UNL     1      30.553  33.248  38.371  1.00  0.00     0.167 HD
ENDBRANCH  11  13
ENDBRANCH   8  11
ENDBRANCH   2   3
ENDBRANCH   1   2
BRANCH   1  15
HETATM   15  C10 UNL     1      30.392  27.226  39.035  1.00  0.00     0.000 C 
BRANCH  15  16
HETATM   16  C11 UNL     1      31.555  26.428  39.632  1.00  0.00     0.000 C 
BRANCH  16  17
HETATM   17  C12 UNL     1      31.240  25.633  40.902  1.00  0.00     0.000 C 
BRANCH  17  18
HETATM   18  C13 UNL     1      31.901  26.110  42.201  1.00  0.00     0.004 C 
BRANCH  18  19
HETATM   19  C14 UNL     1      32.474  27.532  42.156  1.00  0.00     0.027 C 
BRANCH  19  20
HETATM   20  C15 UNL     1      32.528  28.212  43.493  1.00  0.00    -0.030 C 
HETATM   21  C16 UNL     1      33.610  28.697  44.125  1.00  0.00    -0.027 C 
BRANCH  21  22
HETATM   22  C17 UNL     1      35.042  28.634  43.676  1.00  0.00     0.053 C 
BRANCH  22  23
HETATM   23  C18 UNL     1      35.839  27.701  44.543  1.00  0.00    -0.027 C 
HETATM   24  C19 UNL     1      36.023  26.380  44.379  1.00  0.00    -0.027 C 
BRANCH  24  25
HETATM   25  C20 UNL     1      35.480  25.501  43.289  1.00  0.00     0.053 C 
BRANCH  25  26
HETATM   26  C21 UNL     1      36.258  25.682  42.019  1.00  0.00    -0.033 C 
HETATM   27  C22 UNL     1      35.820  26.362  40.951  1.00  0.00     0.007 C 
ENDBRANCH  25  26
ENDBRANCH  24  25
ENDBRANCH  22  23
ENDBRANCH  21  22
ENDBRANCH  19  20
ENDBRANCH  18  19
ENDBRANCH  17  18
ENDBRANCH  16  17
ENDBRANCH  15  16
ENDBRANCH   1  15
TORSDOF 15
