REMARK  8 active torsions:
REMARK  status: ('A' for Active; 'I' for Inactive)
REMARK    1  A    between atoms: C1_1  and  C7_9 
REMARK    2  A    between atoms: C2_2  and  O2_8 
REMARK    3  A    between atoms: C6_6  and  O1_7 
REMARK    4  A    between atoms: C7_9  and  C8_10 
REMARK    5  A    between atoms: C16_19  and  O6_24 
REMARK    6  A    between atoms: C17_20  and  O5_23 
REMARK    7  A    between atoms: C18_21  and  C19_25 
REMARK    8  A    between atoms: C19_25  and  C20_26 
ROOT
HETATM    1  C1  UNL     1      31.186  27.344  40.978  1.00  0.00     0.013 A 
HETATM    2  C2  UNL     1      31.616  26.200  40.286  1.00  0.00     0.077 A 
HETATM    3  C3  UNL     1      31.605  26.145  38.892  1.00  0.00     0.075 A 
HETATM    4  C4  UNL     1      31.164  27.252  38.159  1.00  0.00     0.095 A 
HETATM    5  C5  UNL     1      30.736  28.405  38.814  1.00  0.00     0.083 A 
HETATM    6  C6  UNL     1      30.725  28.442  40.219  1.00  0.00     0.092 A 
HETATM    7  O3  UNL     1      31.208  27.125  36.795  1.00  0.00    -0.309 OA
HETATM    8  C12 UNL     1      30.520  28.048  36.040  1.00  0.00     0.093 A 
HETATM    9  C13 UNL     1      29.986  29.242  36.554  1.00  0.00     0.058 A 
HETATM   10  C14 UNL     1      30.337  29.543  37.964  1.00  0.00     0.201 C 
HETATM   11  C15 UNL     1      30.381  27.719  34.689  1.00  0.00     0.077 A 
HETATM   12  C16 UNL     1      29.689  28.582  33.859  1.00  0.00     0.102 A 
HETATM   13  C17 UNL     1      29.117  29.747  34.369  1.00  0.00     0.106 A 
HETATM   14  C18 UNL     1      29.226  30.099  35.726  1.00  0.00    -0.002 A 
HETATM   15  O4  UNL     1      30.393  30.695  38.371  1.00  0.00    -0.286 OA
ENDROOT
BRANCH   1  16
HETATM   16  C7  UNL     1      31.242  27.387  42.495  1.00  0.00     0.071 C 
BRANCH  16  17
HETATM   17  C8  UNL     1      32.453  28.128  43.002  1.00  0.00    -0.020 C 
HETATM   18  C9  UNL     1      33.687  27.646  43.250  1.00  0.00    -0.091 C 
HETATM   19  C10 UNL     1      34.780  28.561  43.740  1.00  0.00     0.042 C 
HETATM   20  C11 UNL     1      34.120  26.215  43.086  1.00  0.00     0.042 C 
ENDBRANCH  16  17
ENDBRANCH   1  16
BRANCH   2  21
HETATM   21  O2  UNL     1      32.066  25.119  41.000  1.00  0.00    -0.360 OA
HETATM   22  H3  UNL     1      31.608  24.317  40.695  1.00  0.00     0.217 HD
ENDBRANCH   2  21
BRANCH   6  23
HETATM   23  O1  UNL     1      30.246  29.558  40.844  1.00  0.00    -0.359 OA
HETATM   24  H2  UNL     1      30.242  29.424  41.805  1.00  0.00     0.217 HD
ENDBRANCH   6  23
BRANCH  14  25
HETATM   25  C19 UNL     1      28.475  31.323  36.223  1.00  0.00     0.070 C 
BRANCH  25  26
HETATM   26  C20 UNL     1      26.981  31.085  36.291  1.00  0.00    -0.020 C 
HETATM   27  C21 UNL     1      26.254  30.779  37.384  1.00  0.00    -0.091 C 
HETATM   28  C22 UNL     1      26.824  30.554  38.760  1.00  0.00     0.042 C 
HETATM   29  C23 UNL     1      24.756  30.631  37.300  1.00  0.00     0.042 C 
ENDBRANCH  25  26
ENDBRANCH  14  25
BRANCH  13  30
HETATM   30  O5  UNL     1      28.433  30.558  33.501  1.00  0.00    -0.357 OA
HETATM   31  H14 UNL     1      27.579  30.745  33.939  1.00  0.00     0.217 HD
ENDBRANCH  13  30
BRANCH  12  32
HETATM   32  O6  UNL     1      29.527  28.327  32.525  1.00  0.00    -0.358 OA
HETATM   33  H15 UNL     1      29.560  27.365  32.387  1.00  0.00     0.217 HD
ENDBRANCH  12  32
TORSDOF 8
