REMARK  4 active torsions:
REMARK  status: ('A' for Active; 'I' for Inactive)
REMARK    1  A    between atoms: C9_11  and  C11_15 
REMARK    2  A    between atoms: N1_13  and  C10_14 
REMARK    3  A    between atoms: C10_14  and  C14_18 
REMARK    4  A    between atoms: C11_15  and  C12_16 
ROOT
HETATM    1  C1  UNL     1      31.868  27.923  40.761  1.00  0.00     0.105 A 
HETATM    2  C2  UNL     1      31.412  28.584  41.874  1.00  0.00     0.105 A 
HETATM    3  C3  UNL     1      32.123  28.480  43.033  1.00  0.00     0.040 A 
HETATM    4  C4  UNL     1      33.296  27.715  43.081  1.00  0.00     0.018 A 
HETATM    5  C5  UNL     1      33.778  27.042  41.983  1.00  0.00     0.015 A 
HETATM    6  C6  UNL     1      33.019  27.178  40.824  1.00  0.00     0.055 A 
HETATM    7  O1  UNL     1      30.966  28.199  39.747  1.00  0.00    -0.323 OA
HETATM    8  C7  UNL     1      29.749  28.597  40.368  1.00  0.00     0.352 C 
HETATM    9  O2  UNL     1      30.226  29.267  41.544  1.00  0.00    -0.323 OA
HETATM   10  C8  UNL     1      34.989  26.265  42.019  1.00  0.00     0.181 A 
HETATM   11  C9  UNL     1      35.934  26.118  43.133  1.00  0.00     0.153 A 
HETATM   12  O3  UNL     1      35.260  25.625  40.932  1.00  0.00    -0.290 OA
HETATM   13  N1  UNL     1      36.003  27.231  44.009  1.00  0.00    -0.406 N 
HETATM   14  C15 UNL     1      36.224  26.968  45.378  1.00  0.00     0.144 C 
HETATM   15 CL1  UNL     1      34.489  27.000  42.670  1.00  0.00    -0.145 Cl
HETATM   16  H24 UNL     1      35.784  26.729  43.064  1.00  0.00     0.145 HD
ENDROOT
BRANCH  13  17
HETATM   17  C10 UNL     1      36.479  28.447  43.470  1.00  0.00     0.117 C 
BRANCH  17  18
HETATM   18  C14 UNL     1      37.964  28.679  43.637  1.00  0.00     0.015 C 
HETATM   19  C16 UNL     1      38.793  28.152  42.510  1.00  0.00     0.006 C 
ENDBRANCH  17  18
ENDBRANCH  13  17
BRANCH  11  20
HETATM   20  C11 UNL     1      35.723  24.813  43.870  1.00  0.00     0.033 C 
BRANCH  20  21
HETATM   21  C12 UNL     1      36.732  23.799  43.467  1.00  0.00    -0.002 C 
HETATM   22  C13 UNL     1      37.898  24.353  42.695  1.00  0.00     0.005 C 
ENDBRANCH  20  21
ENDBRANCH  11  20
TORSDOF 4
