REMARK  9 active torsions:
REMARK  status: ('A' for Active; 'I' for Inactive)
REMARK    1  A    between atoms: C2_2  and  C21_28 
REMARK    2  A    between atoms: C4_4  and  C7_7 
REMARK    3  A    between atoms: C7_7  and  N1_8 
REMARK    4  A    between atoms: N1_8  and  C8_9 
REMARK    5  A    between atoms: N3_18  and  C17_21 
REMARK    6  A    between atoms: C17_21  and  C18_22 
REMARK    7  A    between atoms: C18_22  and  N4_23 
REMARK       I    between atoms: N4_23  and  C19_24 
REMARK    8  A    between atoms: C19_24  and  C20_25 
REMARK    9  A    between atoms: C20_25  and  O3_27 
ROOT
HETATM    1  C8  UNL     1      31.153  25.290  40.236  1.00  0.00     0.030 A 
HETATM    2  C9  UNL     1      31.137  24.332  39.222  1.00  0.00     0.031 A 
HETATM    3  C10 UNL     1      30.963  24.705  37.886  1.00  0.00     0.036 A 
HETATM    4  C11 UNL     1      30.832  26.045  37.524  1.00  0.00     0.084 A 
HETATM    5  C12 UNL     1      30.897  27.036  38.517  1.00  0.00     0.068 A 
HETATM    6  C13 UNL     1      31.064  26.643  39.857  1.00  0.00     0.061 A 
HETATM    7  N2  UNL     1      30.653  26.328  36.163  1.00  0.00    -0.246 NA
HETATM    8  C14 UNL     1      30.511  27.568  35.810  1.00  0.00     0.099 A 
HETATM    9  C15 UNL     1      30.518  28.725  36.795  1.00  0.00     0.272 A 
HETATM   10  N3  UNL     1      30.780  28.403  38.124  1.00  0.00    -0.309 N 
HETATM   11  C16 UNL     1      30.321  27.919  34.362  1.00  0.00     0.076 C 
HETATM   12  O1  UNL     1      30.286  29.852  36.375  1.00  0.00    -0.266 OA
ENDROOT
BRANCH   1  13
HETATM   13  N1  UNL     1      31.389  24.995  41.582  1.00  0.00    -0.386 N 
HETATM   14  H7  UNL     1      32.220  24.427  41.713  1.00  0.00     0.160 HD
BRANCH  13  15
HETATM   15  C7  UNL     1      31.247  26.010  42.623  1.00  0.00     0.158 C 
BRANCH  15  16
HETATM   16  C4  UNL     1      32.564  26.648  43.009  1.00  0.00    -0.040 A 
HETATM   17  C3  UNL     1      33.786  25.975  42.849  1.00  0.00     0.025 A 
HETATM   18  C2  UNL     1      35.007  26.589  43.177  1.00  0.00     0.048 A 
HETATM   19  C1  UNL     1      34.993  27.899  43.675  1.00  0.00     0.016 A 
HETATM   20  C6  UNL     1      33.788  28.586  43.822  1.00  0.00     0.001 A 
HETATM   21  C5  UNL     1      32.583  27.967  43.486  1.00  0.00     0.009 A 
BRANCH  18  22
HETATM   22  C21 UNL     1      36.305  25.834  43.032  1.00  0.00     0.417 C 
HETATM   23  F1  UNL     1      36.468  25.279  41.798  1.00  0.00    -0.166 F 
HETATM   24  F2  UNL     1      37.403  26.619  43.228  1.00  0.00    -0.166 F 
HETATM   25  F3  UNL     1      36.416  24.810  43.922  1.00  0.00    -0.166 F 
ENDBRANCH  18  22
ENDBRANCH  15  16
ENDBRANCH  13  15
ENDBRANCH   1  13
BRANCH  10  26
HETATM   26  C17 UNL     1      30.825  29.495  39.095  1.00  0.00     0.152 C 
BRANCH  26  27
HETATM   27  C18 UNL     1      29.443  29.788  39.698  1.00  0.00     0.143 C 
BRANCH  27  28
HETATM   28  N4  UNL     1      28.563  30.544  38.826  1.00  0.00    -0.358 N 
HETATM   29  C19 UNL     1      28.664  31.911  38.670  1.00  0.00     0.241 C 
HETATM   30  O2  UNL     1      29.370  32.631  39.365  1.00  0.00    -0.271 OA
HETATM   31  H18 UNL     1      28.087  30.058  38.068  1.00  0.00     0.162 HD
BRANCH  29  32
HETATM   32  C20 UNL     1      27.765  32.449  37.558  1.00  0.00     0.266 C 
BRANCH  32  33
HETATM   33  O3  UNL     1      28.446  32.512  36.309  1.00  0.00    -0.392 OA
HETATM   34  H21 UNL     1      27.822  32.173  35.640  1.00  0.00     0.210 HD
ENDBRANCH  32  33
ENDBRANCH  29  32
ENDBRANCH  27  28
ENDBRANCH  26  27
ENDBRANCH  10  26
TORSDOF 9
