REMARK  4 active torsions:
REMARK  status: ('A' for Active; 'I' for Inactive)
REMARK    1  A    between atoms: C2_2  and  S1_7 
REMARK    2  A    between atoms: C9_10  and  N1_11 
REMARK    3  A    between atoms: N1_11  and  C11_13 
REMARK    4  A    between atoms: C11_13  and  C12_14 
ROOT
HETATM    1  C1  UNL     1      29.766  30.196  39.839  1.00  0.00     0.019 A 
HETATM    2  C2  UNL     1      29.786  29.766  38.521  1.00  0.00    -0.000 A 
HETATM    3  C3  UNL     1      30.565  28.657  38.209  1.00  0.00     0.019 A 
HETATM    4  C4  UNL     1      31.304  27.992  39.175  1.00  0.00     0.016 A 
HETATM    5  C5  UNL     1      31.285  28.415  40.477  1.00  0.00     0.012 A 
HETATM    6  C6  UNL     1      30.507  29.529  40.806  1.00  0.00     0.016 A 
HETATM    7  C8  UNL     1      32.043  27.720  41.509  1.00  0.00     0.192 A 
HETATM    8  C9  UNL     1      32.819  26.492  41.225  1.00  0.00     0.290 A 
HETATM    9  C10 UNL     1      31.776  25.379  40.990  1.00  0.00     0.051 C 
HETATM   10  O1  UNL     1      32.064  28.152  42.706  1.00  0.00    -0.290 OA
HETATM   11 CL1  UNL     1      32.113  28.023  41.376  1.00  0.00    -0.145 Cl
HETATM   12  H20 UNL     1      33.057  27.339  42.108  1.00  0.00     0.145 HD
ENDROOT
BRANCH   8  13
HETATM   13  N1  UNL     1      33.587  26.047  42.344  1.00  0.00     0.099 NA
HETATM   14  H9  UNL     1      33.595  26.790  43.060  1.00  0.00     0.317 HD
BRANCH  13  15
HETATM   15  C11 UNL     1      34.936  25.671  42.080  1.00  0.00     0.309 C 
BRANCH  15  16
HETATM   16  C12 UNL     1      35.914  26.558  42.783  1.00  0.00    -0.030 A 
HETATM   17  C13 UNL     1      36.929  27.187  42.093  1.00  0.00     0.009 A 
HETATM   18  C14 UNL     1      37.845  28.007  42.710  1.00  0.00     0.001 A 
HETATM   19  C15 UNL     1      37.785  28.237  44.071  1.00  0.00     0.000 A 
HETATM   20  C16 UNL     1      36.775  27.615  44.773  1.00  0.00     0.001 A 
HETATM   21  C17 UNL     1      35.858  26.791  44.144  1.00  0.00     0.009 A 
ENDBRANCH  15  16
ENDBRANCH  13  15
ENDBRANCH   8  13
BRANCH   2  22
HETATM   22  S1  UNL     1      28.845  30.602  37.256  1.00  0.00    -0.134 SA
HETATM   23  C7  UNL     1      28.095  32.082  37.937  1.00  0.00     0.095 C 
ENDBRANCH   2  22
TORSDOF 4
