REMARK  1 active torsions:
REMARK  status: ('A' for Active; 'I' for Inactive)
REMARK    1  A    between atoms: C5_5  and  C6_6 
ROOT
HETATM    1  C1  UNL     1      35.872  26.648  43.085  1.00  0.00     0.001 A 
HETATM    2  C2  UNL     1      35.434  27.905  43.539  1.00  0.00     0.001 A 
HETATM    3  C3  UNL     1      34.077  28.242  43.522  1.00  0.00     0.011 A 
HETATM    4  C4  UNL     1      33.182  27.298  43.052  1.00  0.00    -0.007 A 
HETATM    5  C5  UNL     1      33.625  26.046  42.596  1.00  0.00    -0.016 A 
HETATM    6  C6  UNL     1      34.963  25.704  42.603  1.00  0.00     0.010 A 
HETATM    7  C7  UNL     1      31.675  27.341  42.867  1.00  0.00     0.210 A 
HETATM    8  C8  UNL     1      31.351  27.831  41.444  1.00  0.00    -0.009 A 
HETATM    9  C9  UNL     1      31.602  26.944  40.360  1.00  0.00    -0.047 A 
HETATM   10  C10 UNL     1      32.114  25.532  40.636  1.00  0.00     0.079 C 
HETATM   11  C11 UNL     1      32.417  25.275  42.132  1.00  0.00     0.260 A 
HETATM   12  C12 UNL     1      30.879  29.121  41.165  1.00  0.00     0.011 A 
HETATM   13  C13 UNL     1      30.641  29.517  39.846  1.00  0.00     0.001 A 
HETATM   14  C14 UNL     1      30.878  28.637  38.791  1.00  0.00     0.001 A 
HETATM   15  C15 UNL     1      31.357  27.353  39.044  1.00  0.00     0.008 A 
HETATM   16  N1  UNL     1      31.310  25.879  42.929  1.00  0.00     0.111 N 
HETATM   17  C16 UNL     1      30.946  28.070  43.999  1.00  0.00     0.060 C 
HETATM   18  C17 UNL     1      32.336  26.761  42.960  1.00  0.00     0.088 A 
HETATM   19  C18 UNL     1      33.667  26.801  42.341  1.00  0.00     0.165 A 
HETATM   20  O1  UNL     1      34.607  26.859  43.298  1.00  0.00    -0.773 OA
HETATM   21  C19 UNL     1      31.130  27.630  40.968  1.00  0.00     0.165 A 
HETATM   22  C20 UNL     1      31.203  27.092  42.328  1.00  0.00     0.088 A 
HETATM   23  O2  UNL     1      33.949  26.749  41.160  1.00  0.00    -0.647 OA
HETATM   24  O3  UNL     1      30.360  27.248  40.107  1.00  0.00    -0.647 OA
HETATM   25  O4  UNL     1      31.930  28.694  40.807  1.00  0.00    -0.773 OA
HETATM   26  H12 UNL     1      31.433  25.580  43.895  1.00  0.00     0.318 HD
HETATM   27  H17 UNL     1      35.449  26.881  42.797  1.00  0.00     0.167 HD
HETATM   28  H19 UNL     1      31.818  28.936  39.865  1.00  0.00     0.167 HD
ENDROOT
TORSDOF 1
