REMARK  6 active torsions:
REMARK  status: ('A' for Active; 'I' for Inactive)
REMARK    1  A    between atoms: C1_1  and  C2_2 
REMARK       I    between atoms: C1_1  and  N1_4 
REMARK    2  A    between atoms: N1_4  and  C16_21 
REMARK    3  A    between atoms: N3_6  and  C9_13 
REMARK    4  A    between atoms: C9_13  and  C10_14 
REMARK    5  A    between atoms: C16_21  and  C17_22 
REMARK    6  A    between atoms: C16_21  and  C18_23 
REMARK       I    between atoms: C18_23  and  N4_24 
ROOT
HETATM    1  C2  UNL     1      30.973  28.022  39.173  1.00  0.00     0.157 A 
HETATM    2  N2  UNL     1      31.460  28.322  40.390  1.00  0.00    -0.165 NA
HETATM    3  N3  UNL     1      31.790  27.129  40.925  1.00  0.00    -0.264 N 
HETATM    4  C3  UNL     1      31.503  26.056  40.115  1.00  0.00     0.066 A 
HETATM    5  C4  UNL     1      30.953  26.608  38.960  1.00  0.00     0.028 A 
HETATM    6  C5  UNL     1      31.668  24.674  40.287  1.00  0.00     0.032 A 
HETATM    7  C6  UNL     1      31.245  23.837  39.250  1.00  0.00     0.002 A 
HETATM    8  C7  UNL     1      30.671  24.360  38.095  1.00  0.00     0.001 A 
HETATM    9  C8  UNL     1      30.515  25.741  37.936  1.00  0.00     0.016 A 
ENDROOT
BRANCH   1  10
HETATM   10  C1  UNL     1      30.533  29.079  38.253  1.00  0.00     0.273 C 
HETATM   11  O1  UNL     1      30.787  29.085  37.049  1.00  0.00    -0.266 OA
HETATM   12  N1  UNL     1      29.816  30.101  38.848  1.00  0.00    -0.342 N 
HETATM   13  H5  UNL     1      29.730  30.115  39.855  1.00  0.00     0.163 HD
BRANCH  12  14
HETATM   14  C16 UNL     1      29.443  31.302  38.104  1.00  0.00     0.180 C 
BRANCH  14  15
HETATM   15  C17 UNL     1      27.932  31.319  37.784  1.00  0.00     0.009 C 
HETATM   16  C19 UNL     1      27.171  30.293  38.632  1.00  0.00     0.012 C 
HETATM   17  C20 UNL     1      27.679  31.026  36.301  1.00  0.00     0.012 C 
ENDBRANCH  14  15
BRANCH  14  18
HETATM   18  C18 UNL     1      29.855  32.473  39.018  1.00  0.00     0.238 C 
HETATM   19  N4  UNL     1      30.843  33.273  38.510  1.00  0.00    -0.368 N 
HETATM   20  H14 UNL     1      31.257  33.936  39.151  1.00  0.00     0.159 HD
HETATM   21  H15 UNL     1      31.457  32.887  37.793  1.00  0.00     0.159 HD
HETATM   22  O2  UNL     1      29.436  32.638  40.161  1.00  0.00    -0.271 OA
ENDBRANCH  14  18
ENDBRANCH  12  14
ENDBRANCH   1  10
BRANCH   3  23
HETATM   23  C9  UNL     1      32.348  27.087  42.273  1.00  0.00     0.190 C 
BRANCH  23  24
HETATM   24  C10 UNL     1      33.782  26.613  42.278  1.00  0.00    -0.038 A 
HETATM   25  C11 UNL     1      34.318  25.976  43.410  1.00  0.00     0.012 A 
HETATM   26  C12 UNL     1      35.647  25.546  43.415  1.00  0.00     0.043 A 
HETATM   27  C13 UNL     1      36.441  25.755  42.293  1.00  0.00     0.116 A 
HETATM   28  C14 UNL     1      35.934  26.390  41.167  1.00  0.00     0.043 A 
HETATM   29  F1  UNL     1      37.715  25.342  42.302  1.00  0.00    -0.206 F 
HETATM   30  C15 UNL     1      34.607  26.821  41.159  1.00  0.00     0.012 A 
ENDBRANCH  23  24
ENDBRANCH   3  23
TORSDOF 6
