REMARK  10 active torsions:
REMARK  status: ('A' for Active; 'I' for Inactive)
REMARK    1  A    between atoms: C2_2  and  N4_28 
REMARK    2  A    between atoms: C7_8  and  C8_10 
REMARK    3  A    between atoms: N2_9  and  C15_18 
REMARK    4  A    between atoms: C8_10  and  C9_11 
REMARK    5  A    between atoms: C12_14  and  O1_17 
REMARK    6  A    between atoms: O1_17  and  C21_25 
REMARK    7  A    between atoms: C15_18  and  C16_19 
REMARK    8  A    between atoms: C16_19  and  N3_20 
REMARK    9  A    between atoms: N3_20  and  C17_21 
REMARK   10  A    between atoms: N3_20  and  C18_22 
ROOT
HETATM    1  C1  UNL     1      30.355  29.008  36.311  1.00  0.00     0.038 A 
HETATM    2  C2  UNL     1      30.626  27.664  36.025  1.00  0.00     0.105 A 
HETATM    3  C3  UNL     1      30.886  26.737  37.045  1.00  0.00     0.070 A 
HETATM    4  C4  UNL     1      30.866  27.195  38.369  1.00  0.00     0.088 A 
HETATM    5  C5  UNL     1      30.606  28.532  38.643  1.00  0.00     0.065 A 
HETATM    6  C6  UNL     1      30.338  29.466  37.633  1.00  0.00     0.034 A 
HETATM    7  N1  UNL     1      31.063  26.490  39.522  1.00  0.00    -0.233 NA
HETATM    8  C7  UNL     1      30.916  27.347  40.512  1.00  0.00     0.111 A 
HETATM    9  N2  UNL     1      30.695  28.622  40.020  1.00  0.00    -0.331 N 
ENDROOT
BRANCH   8  10
HETATM   10  C8  UNL     1      30.967  26.966  41.964  1.00  0.00     0.117 C 
BRANCH  10  11
HETATM   11  C9  UNL     1      32.342  27.092  42.584  1.00  0.00    -0.051 A 
HETATM   12  C10 UNL     1      32.701  28.238  43.306  1.00  0.00     0.010 A 
HETATM   13  C11 UNL     1      33.971  28.357  43.881  1.00  0.00     0.037 A 
HETATM   14  C12 UNL     1      34.901  27.327  43.751  1.00  0.00     0.069 A 
HETATM   15  C13 UNL     1      34.543  26.178  43.042  1.00  0.00     0.037 A 
HETATM   16  C14 UNL     1      33.273  26.054  42.473  1.00  0.00     0.010 A 
BRANCH  14  17
HETATM   17  O1  UNL     1      36.176  27.321  44.242  1.00  0.00    -0.347 OA
BRANCH  17  18
HETATM   18  C21 UNL     1      37.140  28.209  43.669  1.00  0.00     0.120 C 
HETATM   19  C22 UNL     1      38.360  28.185  44.588  1.00  0.00     0.040 C 
HETATM   20  C23 UNL     1      37.527  27.722  42.274  1.00  0.00     0.040 C 
ENDBRANCH  17  18
ENDBRANCH  14  17
ENDBRANCH  10  11
ENDBRANCH   8  10
BRANCH   9  21
HETATM   21  C15 UNL     1      30.493  29.830  40.797  1.00  0.00     0.161 C 
BRANCH  21  22
HETATM   22  C16 UNL     1      29.030  30.159  41.152  1.00  0.00     0.292 C 
BRANCH  22  23
HETATM   23  N3  UNL     1      28.483  31.497  40.862  1.00  0.00     0.089 N 
BRANCH  23  24
HETATM   24  C17 UNL     1      27.029  31.542  40.663  1.00  0.00     0.268 C 
HETATM   25  C19 UNL     1      26.341  30.193  40.865  1.00  0.00     0.037 C 
ENDBRANCH  23  24
BRANCH  23  26
HETATM   26  C18 UNL     1      29.216  32.185  39.787  1.00  0.00     0.268 C 
HETATM   27  C20 UNL     1      28.378  32.339  38.523  1.00  0.00     0.037 C 
ENDBRANCH  23  26
ENDBRANCH  22  23
ENDBRANCH  21  22
ENDBRANCH   9  21
BRANCH   2  28
HETATM   28  N4  UNL     1      30.633  27.214  34.629  1.00  0.00    -0.116 N 
HETATM   29  O2  UNL     1      30.351  28.045  33.754  1.00  0.00    -0.532 OA
HETATM   30  O3  UNL     1      30.917  26.029  34.405  1.00  0.00    -0.532 OA
ENDBRANCH   2  28
TORSDOF 10
