REMARK  9 active torsions:
REMARK  status: ('A' for Active; 'I' for Inactive)
REMARK    1  A    between atoms: C1_2  and  N5_13 
REMARK    2  A    between atoms: C4_6  and  N6_19 
REMARK    3  A    between atoms: N3_7  and  C6_10 
REMARK    4  A    between atoms: N5_13  and  C9_14 
REMARK    5  A    between atoms: C9_14  and  C10_15 
REMARK    6  A    between atoms: C9_14  and  C12_17 
REMARK    7  A    between atoms: C12_17  and  O1_18 
REMARK    8  A    between atoms: N6_19  and  C13_20 
REMARK    9  A    between atoms: C13_20  and  C15_22 
ROOT
HETATM    1  N1  UNL     1      31.522  26.882  39.116  1.00  0.00    -0.198 NA
HETATM    2  C1  UNL     1      31.181  27.576  38.018  1.00  0.00     0.206 A 
HETATM    3  N2  UNL     1      30.611  28.787  37.997  1.00  0.00    -0.198 NA
HETATM    4  C2  UNL     1      30.365  29.252  39.227  1.00  0.00     0.167 A 
HETATM    5  C3  UNL     1      30.656  28.640  40.435  1.00  0.00     0.150 A 
HETATM    6  C4  UNL     1      31.283  27.369  40.376  1.00  0.00     0.162 A 
HETATM    7  N3  UNL     1      29.770  30.441  39.555  1.00  0.00    -0.320 N 
HETATM    8  C5  UNL     1      29.714  30.509  40.920  1.00  0.00     0.212 A 
HETATM    9  N4  UNL     1      30.236  29.441  41.484  1.00  0.00    -0.236 NA
ENDROOT
BRANCH   6  10
HETATM   10  N6  UNL     1      31.704  26.587  41.477  1.00  0.00    -0.364 N 
HETATM   11  C14 UNL     1      30.588  25.841  42.060  1.00  0.00     0.151 C 
BRANCH  10  12
HETATM   12  C13 UNL     1      32.636  27.239  42.407  1.00  0.00     0.162 C 
BRANCH  12  13
HETATM   13  C15 UNL     1      34.026  26.632  42.350  1.00  0.00    -0.040 A 
HETATM   14  C16 UNL     1      34.806  26.755  41.190  1.00  0.00     0.009 A 
HETATM   15  C17 UNL     1      36.089  26.209  41.137  1.00  0.00     0.001 A 
HETATM   16  C18 UNL     1      36.609  25.541  42.244  1.00  0.00     0.000 A 
HETATM   17  C19 UNL     1      35.847  25.418  43.405  1.00  0.00     0.001 A 
HETATM   18  C20 UNL     1      34.562  25.963  43.460  1.00  0.00     0.009 A 
ENDBRANCH  12  13
ENDBRANCH  10  12
ENDBRANCH   6  10
BRANCH   2  19
HETATM   19  N5  UNL     1      31.516  26.954  36.825  1.00  0.00    -0.254 NA
HETATM   20  H9  UNL     1      32.503  27.143  36.673  1.00  0.00     0.131 HD
BRANCH  19  21
HETATM   21  C9  UNL     1      30.670  27.284  35.670  1.00  0.00     0.086 C 
BRANCH  21  22
HETATM   22  C10 UNL     1      30.205  25.942  35.064  1.00  0.00     0.017 C 
HETATM   23  C11 UNL     1      29.443  26.095  33.756  1.00  0.00     0.007 C 
ENDBRANCH  21  22
BRANCH  21  24
HETATM   24  C12 UNL     1      31.439  28.155  34.647  1.00  0.00     0.184 C 
BRANCH  24  25
HETATM   25  O1  UNL     1      32.840  27.883  34.680  1.00  0.00    -0.399 OA
HETATM   26  H18 UNL     1      32.948  27.056  35.189  1.00  0.00     0.209 HD
ENDBRANCH  24  25
ENDBRANCH  21  24
ENDBRANCH  19  21
ENDBRANCH   2  19
BRANCH   7  27
HETATM   27  C6  UNL     1      29.282  31.441  38.615  1.00  0.00     0.084 C 
HETATM   28  C7  UNL     1      30.268  32.599  38.463  1.00  0.00     0.032 C 
HETATM   29  C8  UNL     1      27.890  31.943  39.000  1.00  0.00     0.032 C 
ENDBRANCH   7  27
TORSDOF 9
