REMARK  7 active torsions:
REMARK  status: ('A' for Active; 'I' for Inactive)
REMARK    1  A    between atoms: C6_6  and  N1_7 
REMARK       I    between atoms: N1_7  and  C7_8 
REMARK    2  A    between atoms: N1_7  and  C8_9 
REMARK    3  A    between atoms: C7_8  and  C21_24 
REMARK    4  A    between atoms: N2_13  and  C13_16 
REMARK    5  A    between atoms: C11_14  and  C12_15 
REMARK    6  A    between atoms: C13_16  and  C14_17 
REMARK    7  A    between atoms: C14_17  and  C15_18 
ROOT
HETATM    1  C8  UNL     1      30.775  27.276  40.716  1.00  0.00     0.095 A 
HETATM    2  C9  UNL     1      30.255  26.249  41.663  1.00  0.00     0.056 A 
HETATM    3  C10 UNL     1      31.387  25.945  42.686  1.00  0.00     0.274 A 
HETATM    4  N2  UNL     1      32.603  26.471  42.089  1.00  0.00     0.088 N 
HETATM    5  C11 UNL     1      32.595  27.922  42.283  1.00  0.00     0.274 A 
HETATM    6  C12 UNL     1      31.340  28.442  41.564  1.00  0.00     0.056 A 
HETATM    7 CL1  UNL     1      31.545  27.083  41.743  1.00  0.00    -0.145 Cl
HETATM    8  H35 UNL     1      30.382  27.421  41.074  1.00  0.00     0.145 HD
ENDROOT
BRANCH   1   9
HETATM    9  N1  UNL     1      29.965  27.792  39.696  1.00  0.00    -0.324 N 
HETATM   10  C7  UNL     1      28.964  28.747  39.730  1.00  0.00     0.162 C 
HETATM   11  O1  UNL     1      28.537  29.144  38.554  1.00  0.00    -0.176 OA
BRANCH   9  12
HETATM   12  C6  UNL     1      30.272  27.279  38.357  1.00  0.00     0.036 A 
HETATM   13  C1  UNL     1      30.841  28.130  37.449  1.00  0.00     0.029 A 
HETATM   14  C2  UNL     1      31.136  27.685  36.160  1.00  0.00     0.002 A 
HETATM   15  C3  UNL     1      30.859  26.389  35.789  1.00  0.00     0.000 A 
HETATM   16  C4  UNL     1      30.292  25.541  36.695  1.00  0.00     0.002 A 
HETATM   17  C5  UNL     1      29.997  25.996  37.992  1.00  0.00     0.029 A 
ENDBRANCH   9  12
BRANCH  10  18
HETATM   18  C21 UNL     1      28.263  29.412  40.851  1.00  0.00     0.064 C 
HETATM   19  C22 UNL     1      26.813  29.468  40.535  1.00  0.00     0.013 C 
HETATM   20  C23 UNL     1      26.063  30.697  40.890  1.00  0.00     0.001 C 
HETATM   21  C24 UNL     1      26.898  31.933  40.660  1.00  0.00     0.000 C 
HETATM   22  C25 UNL     1      28.059  31.799  41.657  1.00  0.00     0.001 C 
HETATM   23  C26 UNL     1      28.947  30.723  41.105  1.00  0.00     0.013 C 
ENDBRANCH  10  18
ENDBRANCH   1   9
BRANCH   4  24
HETATM   24  C13 UNL     1      33.784  25.940  42.725  1.00  0.00     0.277 C 
BRANCH  24  25
HETATM   25  C14 UNL     1      35.042  26.079  41.944  1.00  0.00     0.068 C 
BRANCH  25  26
HETATM   26  C15 UNL     1      36.098  26.833  42.636  1.00  0.00    -0.057 A 
HETATM   27  C16 UNL     1      36.006  26.974  44.007  1.00  0.00     0.007 A 
HETATM   28  C17 UNL     1      36.971  27.673  44.710  1.00  0.00     0.001 A 
HETATM   29  C18 UNL     1      38.046  28.245  44.067  1.00  0.00     0.000 A 
HETATM   30  C19 UNL     1      38.151  28.108  42.683  1.00  0.00     0.001 A 
HETATM   31  C20 UNL     1      37.186  27.414  42.012  1.00  0.00     0.007 A 
ENDBRANCH  25  26
ENDBRANCH  24  25
ENDBRANCH   4  24
TORSDOF 7
