REMARK  4 active torsions:
REMARK  status: ('A' for Active; 'I' for Inactive)
REMARK    1  A    between atoms: N1_3  and  C6_8 
REMARK    2  A    between atoms: C7_10  and  C10_14 
REMARK    3  A    between atoms: C13_17  and  N4_20 
REMARK       I    between atoms: N4_20  and  C16_21 
REMARK       I    between atoms: C16_21  and  N5_22 
REMARK    4  A    between atoms: N5_22  and  C17_23 
ROOT
HETATM    1  C6  UNL     1      29.536  29.541  36.193  1.00  0.00     0.117 A 
HETATM    2  N2  UNL     1      30.317  28.924  37.097  1.00  0.00    -0.216 NA
HETATM    3  C7  UNL     1      30.053  29.106  38.407  1.00  0.00     0.161 A 
HETATM    4  N3  UNL     1      29.043  29.862  38.874  1.00  0.00    -0.231 NA
HETATM    5  C8  UNL     1      28.270  30.462  37.955  1.00  0.00     0.070 A 
HETATM    6  C9  UNL     1      28.480  30.331  36.595  1.00  0.00     0.023 A 
HETATM    7  C19 UNL     1      27.082  31.283  38.394  1.00  0.00     0.102 C 
HETATM    8  S1  UNL     1      26.552  32.000  36.816  1.00  0.00     0.162 S 
HETATM    9  C20 UNL     1      27.495  30.984  35.697  1.00  0.00     0.185 C 
HETATM   10  C21 UNL     1      27.476  32.374  39.390  1.00  0.00     0.038 C 
HETATM   11  C22 UNL     1      25.995  30.380  38.983  1.00  0.00     0.038 C 
HETATM   12  O3  UNL     1      25.145  31.728  36.595  1.00  0.00    -0.226 OA
HETATM   13  O4  UNL     1      27.059  33.357  36.704  1.00  0.00    -0.226 OA
ENDROOT
BRANCH   3  14
HETATM   14  C10 UNL     1      30.923  28.427  39.388  1.00  0.00     0.012 A 
HETATM   15  C11 UNL     1      31.650  27.271  39.052  1.00  0.00     0.017 A 
HETATM   16  C12 UNL     1      32.472  26.625  39.985  1.00  0.00     0.030 A 
HETATM   17  C13 UNL     1      32.593  27.112  41.290  1.00  0.00     0.036 A 
HETATM   18  C14 UNL     1      31.886  28.261  41.640  1.00  0.00     0.030 A 
HETATM   19  C15 UNL     1      31.065  28.905  40.703  1.00  0.00     0.017 A 
BRANCH  17  20
HETATM   20  N4  UNL     1      33.444  26.412  42.167  1.00  0.00    -0.309 N 
HETATM   21  C16 UNL     1      34.821  26.451  42.209  1.00  0.00     0.320 C 
HETATM   22  N5  UNL     1      35.301  25.557  43.150  1.00  0.00    -0.343 N 
HETATM   23  O2  UNL     1      35.558  27.167  41.546  1.00  0.00    -0.247 OA
HETATM   24  H16 UNL     1      34.722  24.754  43.337  1.00  0.00     0.164 HD
HETATM   25  H15 UNL     1      33.004  25.934  42.937  1.00  0.00     0.170 HD
BRANCH  22  26
HETATM   26  C17 UNL     1      36.727  25.386  43.349  1.00  0.00     0.120 C 
HETATM   27  C18 UNL     1      37.249  24.131  42.670  1.00  0.00     0.026 C 
ENDBRANCH  22  26
ENDBRANCH  17  20
ENDBRANCH   3  14
BRANCH   1  28
HETATM   28  N1  UNL     1      29.804  29.362  34.831  1.00  0.00    -0.259 NA
HETATM   29  C2  UNL     1      30.406  28.043  34.451  1.00  0.00     0.084 C 
HETATM   30  C1  UNL     1      30.089  27.737  32.967  1.00  0.00     0.187 C 
HETATM   31  C5  UNL     1      29.970  26.862  35.331  1.00  0.00     0.029 C 
HETATM   32  O1  UNL     1      28.686  27.641  32.686  1.00  0.00    -0.388 OA
HETATM   33  C4  UNL     1      27.893  28.597  33.412  1.00  0.00     0.182 C 
HETATM   34  C3  UNL     1      28.693  29.791  33.946  1.00  0.00     0.123 C 
ENDBRANCH   1  28
TORSDOF 4
