REMARK  5 active torsions:
REMARK  status: ('A' for Active; 'I' for Inactive)
REMARK    1  A    between atoms: C2_4  and  C5_7 
REMARK    2  A    between atoms: C9_11  and  C11_14 
REMARK       I    between atoms: C11_14  and  N3_15 
REMARK    3  A    between atoms: N3_15  and  N4_16 
REMARK    4  A    between atoms: N4_16  and  S1_17 
REMARK    5  A    between atoms: S1_17  and  C12_18 
ROOT
HETATM    1  C11 UNL     1      30.503  29.272  40.264  1.00  0.00     0.269 C 
HETATM    2  N3  UNL     1      29.612  29.861  41.142  1.00  0.00    -0.274 N 
HETATM    3  O1  UNL     1      30.792  29.799  39.190  1.00  0.00    -0.266 OA
HETATM    4  H7  UNL     1      29.616  29.598  42.132  1.00  0.00     0.185 HD
ENDROOT
BRANCH   1   5
HETATM    5  C9  UNL     1      31.123  27.982  40.664  1.00  0.00     0.072 A 
HETATM    6  C8  UNL     1      30.674  26.751  40.189  1.00  0.00     0.132 A 
HETATM    7  C7  UNL     1      31.280  25.567  40.596  1.00  0.00     0.044 A 
HETATM    8  F1  UNL     1      29.643  26.672  39.336  1.00  0.00    -0.205 F 
HETATM    9  C6  UNL     1      32.353  25.605  41.491  1.00  0.00     0.015 A 
HETATM   10  C5  UNL     1      32.835  26.827  41.992  1.00  0.00    -0.023 A 
HETATM   11  C10 UNL     1      32.202  28.010  41.563  1.00  0.00     0.032 A 
BRANCH  10  12
HETATM   12  C2  UNL     1      33.961  26.870  42.938  1.00  0.00    -0.005 A 
HETATM   13  C1  UNL     1      34.208  27.980  43.740  1.00  0.00     0.153 A 
HETATM   14  N2  UNL     1      35.235  28.061  44.615  1.00  0.00    -0.162 NA
HETATM   15  N1  UNL     1      36.084  27.010  44.739  1.00  0.00    -0.163 NA
HETATM   16  C4  UNL     1      35.884  25.911  43.989  1.00  0.00     0.142 A 
HETATM   17  C3  UNL     1      34.844  25.800  43.083  1.00  0.00     0.034 A 
ENDBRANCH  10  12
ENDBRANCH   1   5
BRANCH   2  18
HETATM   18  N4  UNL     1      29.300  31.345  40.872  1.00  0.00    -0.123 NA
HETATM   19  H8  UNL     1      29.657  31.919  41.653  1.00  0.00     0.166 HD
BRANCH  18  20
HETATM   20  S1  UNL     1      27.625  31.671  40.703  1.00  0.00     0.258 S 
HETATM   21  O2  UNL     1      27.426  33.056  41.065  1.00  0.00    -0.204 OA
HETATM   22  O3  UNL     1      26.906  30.597  41.358  1.00  0.00    -0.204 OA
BRANCH  20  23
HETATM   23  C12 UNL     1      27.419  31.498  38.952  1.00  0.00     0.076 A 
HETATM   24  C13 UNL     1      26.324  30.781  38.460  1.00  0.00     0.025 A 
HETATM   25  C14 UNL     1      26.147  30.660  37.081  1.00  0.00     0.002 A 
HETATM   26  C15 UNL     1      27.054  31.259  36.206  1.00  0.00     0.000 A 
HETATM   27  C16 UNL     1      28.139  31.984  36.702  1.00  0.00     0.002 A 
HETATM   28  C17 UNL     1      28.323  32.110  38.079  1.00  0.00     0.025 A 
ENDBRANCH  20  23
ENDBRANCH  18  20
ENDBRANCH   2  18
TORSDOF 5
