REMARK  6 active torsions:
REMARK  status: ('A' for Active; 'I' for Inactive)
REMARK    1  A    between atoms: C1_1  and  N1_8 
REMARK    2  A    between atoms: C3_3  and  C21_30 
REMARK       I    between atoms: N1_8  and  C7_9 
REMARK       I    between atoms: C7_9  and  N2_11 
REMARK    3  A    between atoms: N2_11  and  C8_12 
REMARK    4  A    between atoms: C11_15  and  O2_18 
REMARK    5  A    between atoms: O2_18  and  C14_19 
REMARK    6  A    between atoms: C16_21  and  C19_25 
REMARK       I    between atoms: C19_25  and  N4_27 
ROOT
HETATM    1  C8  UNL     1      29.259  30.435  40.150  1.00  0.00     0.036 A 
HETATM    2  C9  UNL     1      29.825  31.572  39.556  1.00  0.00     0.032 A 
HETATM    3  C10 UNL     1      29.144  32.267  38.554  1.00  0.00     0.039 A 
HETATM    4  C11 UNL     1      27.881  31.840  38.151  1.00  0.00     0.076 A 
HETATM    5  C12 UNL     1      27.315  30.700  38.720  1.00  0.00     0.039 A 
HETATM    6  C13 UNL     1      27.999  30.008  39.725  1.00  0.00     0.032 A 
ENDROOT
BRANCH   1   7
HETATM    7  N2  UNL     1      30.011  29.797  41.160  1.00  0.00    -0.309 N 
HETATM    8  C7  UNL     1      31.084  28.932  40.997  1.00  0.00     0.325 C 
HETATM    9  N1  UNL     1      31.492  28.439  42.230  1.00  0.00    -0.309 N 
HETATM   10  O1  UNL     1      31.597  28.639  39.927  1.00  0.00    -0.247 OA
HETATM   11  H4  UNL     1      30.823  28.529  42.979  1.00  0.00     0.170 HD
HETATM   12  H5  UNL     1      29.837  30.110  42.102  1.00  0.00     0.170 HD
BRANCH   9  13
HETATM   13  C1  UNL     1      32.620  27.636  42.498  1.00  0.00     0.037 A 
HETATM   14  C2  UNL     1      33.620  27.973  43.414  1.00  0.00     0.047 A 
HETATM   15  C3  UNL     1      34.721  27.122  43.649  1.00  0.00     0.071 A 
HETATM   16  C4  UNL     1      34.798  25.916  42.945  1.00  0.00     0.049 A 
HETATM   17  C5  UNL     1      33.798  25.565  42.036  1.00  0.00     0.027 A 
HETATM   18 CL1  UNL     1      36.103  24.806  43.158  1.00  0.00    -0.083 Cl
HETATM   19  C6  UNL     1      32.715  26.419  41.816  1.00  0.00     0.031 A 
BRANCH  15  20
HETATM   20  C21 UNL     1      35.779  27.519  44.643  1.00  0.00     0.419 C 
HETATM   21  F1  UNL     1      36.345  26.458  45.288  1.00  0.00    -0.166 F 
HETATM   22  F2  UNL     1      36.820  28.186  44.070  1.00  0.00    -0.166 F 
HETATM   23  F3  UNL     1      35.303  28.327  45.630  1.00  0.00    -0.166 F 
ENDBRANCH  15  20
ENDBRANCH   9  13
ENDBRANCH   1   7
BRANCH   4  24
HETATM   24  O2  UNL     1      27.272  32.543  37.138  1.00  0.00    -0.311 OA
BRANCH  24  25
HETATM   25  C14 UNL     1      27.588  32.198  35.845  1.00  0.00     0.080 A 
HETATM   26  C15 UNL     1      27.631  33.232  34.915  1.00  0.00     0.075 A 
HETATM   27  C16 UNL     1      27.909  32.959  33.565  1.00  0.00     0.135 A 
HETATM   28  N3  UNL     1      28.124  31.650  33.140  1.00  0.00    -0.194 N 
HETATM   29  C17 UNL     1      28.055  30.633  34.089  1.00  0.00     0.129 A 
HETATM   30  O4  UNL     1      28.370  31.321  31.929  1.00  0.00    -0.081 OA
HETATM   31  C18 UNL     1      27.783  30.886  35.432  1.00  0.00     0.057 A 
BRANCH  27  32
HETATM   32  C19 UNL     1      27.966  34.077  32.594  1.00  0.00     0.270 C 
HETATM   33  O3  UNL     1      28.636  35.071  32.864  1.00  0.00    -0.266 OA
HETATM   34  N4  UNL     1      27.262  33.945  31.424  1.00  0.00    -0.360 N 
HETATM   35  C20 UNL     1      27.157  35.002  30.456  1.00  0.00     0.149 C 
HETATM   36  H13 UNL     1      26.650  33.123  31.346  1.00  0.00     0.162 HD
ENDBRANCH  27  32
ENDBRANCH  24  25
ENDBRANCH   4  24
TORSDOF 6
