REMARK  7 active torsions:
REMARK  status: ('A' for Active; 'I' for Inactive)
REMARK    1  A    between atoms: C6_6  and  N1_7 
REMARK       I    between atoms: N1_7  and  C7_8 
REMARK    2  A    between atoms: N1_7  and  C8_9 
REMARK    3  A    between atoms: C7_8  and  C9_10 
REMARK    4  A    between atoms: C15_18  and  C16_19 
REMARK    5  A    between atoms: C16_19  and  C17_20 
REMARK    6  A    between atoms: C18_21  and  O2_26 
REMARK    7  A    between atoms: C20_23  and  O3_28 
ROOT
HETATM    1  C8  UNL     1      34.466  27.790  42.416  1.00  0.00     0.096 C 
HETATM    2  C11 UNL     1      33.330  27.486  43.304  1.00  0.00     0.056 C 
HETATM    3  C12 UNL     1      32.056  27.860  42.634  1.00  0.00     0.274 A 
HETATM    4  N2  UNL     1      31.821  27.527  41.295  1.00  0.00     0.088 N 
HETATM    5  C13 UNL     1      32.947  27.182  40.487  1.00  0.00     0.274 A 
HETATM    6  C14 UNL     1      34.257  26.987  41.138  1.00  0.00     0.056 C 
HETATM    7  C15 UNL     1      30.879  26.381  41.246  1.00  0.00     0.277 A 
HETATM    8 CL1  UNL     1      31.889  27.468  41.326  1.00  0.00    -0.145 Cl
HETATM    9  H33 UNL     1      33.145  27.202  41.816  1.00  0.00     0.145 HD
ENDROOT
BRANCH   1  10
HETATM   10  N1  UNL     1      35.772  27.428  42.887  1.00  0.00    -0.313 N 
HETATM   11  C7  UNL     1      36.760  28.424  43.095  1.00  0.00     0.224 C 
HETATM   12  O1  UNL     1      36.549  29.654  42.879  1.00  0.00    -0.273 OA
BRANCH  10  13
HETATM   13  C6  UNL     1      36.095  26.066  43.177  1.00  0.00     0.037 A 
HETATM   14  C1  UNL     1      36.750  25.350  42.182  1.00  0.00     0.030 A 
HETATM   15  C2  UNL     1      37.071  24.028  42.407  1.00  0.00     0.002 A 
HETATM   16  C3  UNL     1      36.755  23.408  43.601  1.00  0.00     0.000 A 
HETATM   17  C4  UNL     1      36.101  24.138  44.587  1.00  0.00     0.002 A 
HETATM   18  C5  UNL     1      35.774  25.459  44.372  1.00  0.00     0.030 A 
ENDBRANCH  10  13
BRANCH  11  19
HETATM   19  C9  UNL     1      38.129  28.069  43.586  1.00  0.00     0.099 C 
HETATM   20  C10 UNL     1      39.141  28.065  42.466  1.00  0.00     0.014 C 
ENDBRANCH  11  19
ENDBRANCH   1  10
BRANCH   7  21
HETATM   21  C16 UNL     1      30.305  26.267  39.848  1.00  0.00     0.071 C 
BRANCH  21  22
HETATM   22  C17 UNL     1      29.591  27.543  39.499  1.00  0.00    -0.023 A 
HETATM   23  C18 UNL     1      30.033  28.245  38.362  1.00  0.00     0.077 A 
HETATM   24  C19 UNL     1      29.384  29.389  38.010  1.00  0.00     0.074 A 
HETATM   25  C20 UNL     1      28.303  29.911  38.713  1.00  0.00     0.070 A 
HETATM   26  C21 UNL     1      27.887  29.209  39.821  1.00  0.00     0.037 A 
HETATM   27  C22 UNL     1      28.528  28.022  40.217  1.00  0.00     0.013 A 
BRANCH  23  28
HETATM   28  O2  UNL     1      31.114  27.679  37.706  1.00  0.00    -0.355 OA
HETATM   29  C23 UNL     1      30.950  27.307  36.352  1.00  0.00     0.210 C 
ENDBRANCH  23  28
BRANCH  25  30
HETATM   30  O3  UNL     1      27.662  31.076  38.338  1.00  0.00    -0.356 OA
HETATM   31  C24 UNL     1      28.223  32.141  37.629  1.00  0.00     0.210 C 
ENDBRANCH  25  30
ENDBRANCH  21  22
ENDBRANCH   7  21
TORSDOF 7
