REMARK  9 active torsions:
REMARK  status: ('A' for Active; 'I' for Inactive)
REMARK    1  A    between atoms: C1_1  and  C9_10 
REMARK    2  A    between atoms: C6_6  and  C7_7 
REMARK    3  A    between atoms: C7_7  and  C8_8 
REMARK    4  A    between atoms: C10_11  and  C11_12 
REMARK    5  A    between atoms: C12_13  and  C13_14 
REMARK    6  A    between atoms: C12_13  and  C14_15 
REMARK    7  A    between atoms: C16_18  and  C20_22 
REMARK    8  A    between atoms: C20_22  and  C21_23 
REMARK    9  A    between atoms: C21_23  and  O4_25 
ROOT
HETATM    1  C9  UNL     1      30.654  28.427  42.722  1.00  0.00    -0.017 C 
HETATM    2  C10 UNL     1      30.823  29.035  41.535  1.00  0.00    -0.003 C 
ENDROOT
BRANCH   1   3
HETATM    3  C1  UNL     1      31.736  27.860  43.632  1.00  0.00     0.042 C 
HETATM    4  C2  UNL     1      32.847  28.876  43.887  1.00  0.00    -0.021 C 
HETATM    5  C3  UNL     1      34.125  28.713  43.502  1.00  0.00    -0.025 C 
HETATM    6  C4  UNL     1      34.573  27.460  42.824  1.00  0.00     0.013 C 
HETATM    7  C5  UNL     1      33.412  26.744  42.119  1.00  0.00     0.006 C 
HETATM    8  C22 UNL     1      35.600  27.545  41.701  1.00  0.00     0.009 C 
HETATM    9  C6  UNL     1      32.299  26.484  43.140  1.00  0.00     0.078 C 
HETATM   10  C24 UNL     1      34.142  25.568  41.483  1.00  0.00     0.006 C 
HETATM   11  C23 UNL     1      35.462  26.188  40.989  1.00  0.00     0.001 C 
BRANCH   9  12
HETATM   12  C7  UNL     1      31.202  25.563  42.608  1.00  0.00     0.181 C 
HETATM   13  O1  UNL     1      30.332  25.100  43.344  1.00  0.00    -0.290 OA
BRANCH  12  14
HETATM   14  C8  UNL     1      31.214  25.239  41.190  1.00  0.00     0.078 A 
HETATM   15  C25 UNL     1      31.064  26.023  40.058  1.00  0.00     0.034 A 
HETATM   16  C26 UNL     1      31.169  25.179  38.924  1.00  0.00     0.019 A 
HETATM   17  C27 UNL     1      31.377  23.901  39.383  1.00  0.00     0.088 A 
HETATM   18  N1  UNL     1      31.398  23.945  40.751  1.00  0.00    -0.363 N 
HETATM   19  H33 UNL     1      31.531  23.155  41.373  1.00  0.00     0.165 HD
ENDBRANCH  12  14
ENDBRANCH   9  12
ENDBRANCH   1   3
BRANCH   2  20
HETATM   20  C11 UNL     1      29.714  29.518  40.737  1.00  0.00     0.005 C 
HETATM   21  C12 UNL     1      29.676  29.653  39.392  1.00  0.00    -0.051 C 
BRANCH  21  22
HETATM   22  C13 UNL     1      28.421  30.095  38.628  1.00  0.00     0.154 C 
HETATM   23  O2  UNL     1      28.753  31.251  37.849  1.00  0.00    -0.375 OA
HETATM   24  C16 UNL     1      27.711  31.772  37.017  1.00  0.00     0.136 C 
HETATM   25  C17 UNL     1      26.442  30.911  36.998  1.00  0.00     0.033 C 
HETATM   26  C18 UNL     1      25.956  30.614  38.417  1.00  0.00     0.009 C 
HETATM   27  C19 UNL     1      27.115  30.383  39.413  1.00  0.00     0.015 C 
HETATM   28  C28 UNL     1      27.225  31.600  40.349  1.00  0.00     0.012 C 
BRANCH  24  29
HETATM   29  C20 UNL     1      28.265  32.087  35.616  1.00  0.00     0.108 C 
HETATM   30  C29 UNL     1      27.897  31.008  34.596  1.00  0.00     0.024 C 
BRANCH  29  31
HETATM   31  C21 UNL     1      27.782  33.428  35.113  1.00  0.00     0.145 C 
HETATM   32  O3  UNL     1      28.105  34.003  34.087  1.00  0.00    -0.650 OA
BRANCH  31  33
HETATM   33  O4  UNL     1      26.907  34.008  35.959  1.00  0.00    -0.776 OA
HETATM   34  H23 UNL     1      26.574  34.778  35.451  1.00  0.00     0.167 HD
ENDBRANCH  31  33
ENDBRANCH  29  31
ENDBRANCH  24  29
ENDBRANCH  21  22
BRANCH  21  35
HETATM   35  C14 UNL     1      30.865  29.314  38.499  1.00  0.00     0.032 C 
HETATM   36  C15 UNL     1      30.463  28.460  37.304  1.00  0.00     0.010 C 
ENDBRANCH  21  35
ENDBRANCH   2  20
TORSDOF 9
