REMARK  10 active torsions:
REMARK  status: ('A' for Active; 'I' for Inactive)
REMARK    1  A    between atoms: C2_2  and  O5_32 
REMARK    2  A    between atoms: C7_7  and  C18_18 
REMARK    3  A    between atoms: C8_8  and  O4_31 
REMARK    4  A    between atoms: C17_17  and  C20_20 
REMARK    5  A    between atoms: C20_20  and  C22_22 
REMARK    6  A    between atoms: C22_22  and  C23_23 
REMARK    7  A    between atoms: C23_23  and  C24_24 
REMARK       I    between atoms: C24_24  and  N1_25 
REMARK    8  A    between atoms: N1_25  and  C25_27 
REMARK    9  A    between atoms: C25_27  and  C26_28 
REMARK   10  A    between atoms: C26_28  and  O2_29 
ROOT
HETATM    1  C1  UNL     1      29.361  27.676  33.270  1.00  0.00     0.032 C 
HETATM    2  C2  UNL     1      29.362  29.171  32.961  1.00  0.00     0.118 C 
HETATM    3  C3  UNL     1      28.809  29.984  34.121  1.00  0.00     0.037 C 
HETATM    4  C4  UNL     1      29.648  29.807  35.406  1.00  0.00     0.003 C 
HETATM    5  C5  UNL     1      30.123  28.327  35.669  1.00  0.00    -0.036 C 
HETATM    6  C6  UNL     1      29.318  27.349  34.766  1.00  0.00     0.012 C 
HETATM    7  C7  UNL     1      28.960  30.491  36.614  1.00  0.00     0.019 C 
HETATM    8  C8  UNL     1      29.899  30.438  37.839  1.00  0.00     0.127 C 
HETATM    9  C9  UNL     1      30.487  29.034  38.161  1.00  0.00     0.024 C 
HETATM   10  C10 UNL     1      29.942  27.930  37.189  1.00  0.00     0.001 C 
HETATM   11  C11 UNL     1      30.320  28.567  39.621  1.00  0.00     0.001 C 
HETATM   12  C12 UNL     1      31.009  27.205  39.910  1.00  0.00    -0.036 C 
HETATM   13  C13 UNL     1      30.343  26.147  39.021  1.00  0.00     0.010 C 
HETATM   14  C14 UNL     1      30.464  26.507  37.533  1.00  0.00     0.007 C 
HETATM   15  C15 UNL     1      30.824  29.448  40.770  1.00  0.00     0.006 C 
HETATM   16  C16 UNL     1      30.975  28.489  41.969  1.00  0.00     0.006 C 
HETATM   17  C17 UNL     1      30.675  27.076  41.424  1.00  0.00    -0.002 C 
HETATM   18  C27 UNL     1      31.621  28.217  35.266  1.00  0.00     0.016 C 
HETATM   19  C28 UNL     1      32.534  27.211  39.653  1.00  0.00     0.016 C 
ENDROOT
BRANCH  17  20
HETATM   20  C20 UNL     1      31.265  25.873  42.215  1.00  0.00    -0.013 C 
HETATM   21  C21 UNL     1      30.157  25.263  43.091  1.00  0.00     0.010 C 
BRANCH  20  22
HETATM   22  C22 UNL     1      32.511  26.193  43.078  1.00  0.00     0.014 C 
BRANCH  22  23
HETATM   23  C23 UNL     1      33.831  25.698  42.474  1.00  0.00     0.103 C 
BRANCH  23  24
HETATM   24  C24 UNL     1      35.057  26.006  43.316  1.00  0.00     0.218 C 
HETATM   25  N1  UNL     1      35.308  27.358  43.427  1.00  0.00    -0.351 N 
HETATM   26  H36 UNL     1      34.533  27.985  43.244  1.00  0.00     0.163 HD
HETATM   27  O1  UNL     1      35.742  25.152  43.867  1.00  0.00    -0.274 OA
BRANCH  25  28
HETATM   28  C25 UNL     1      36.334  27.843  44.338  1.00  0.00     0.232 C 
BRANCH  28  29
HETATM   29  C26 UNL     1      37.603  28.174  43.572  1.00  0.00     0.158 C 
HETATM   30  O3  UNL     1      37.728  28.231  42.358  1.00  0.00    -0.649 OA
BRANCH  29  31
HETATM   31  O2  UNL     1      38.671  28.343  44.378  1.00  0.00    -0.775 OA
HETATM   32  H39 UNL     1      38.457  29.147  44.896  1.00  0.00     0.167 HD
ENDBRANCH  29  31
ENDBRANCH  28  29
ENDBRANCH  25  28
ENDBRANCH  23  24
ENDBRANCH  22  23
ENDBRANCH  20  22
ENDBRANCH  17  20
BRANCH   8  33
HETATM   33  O4  UNL     1      29.241  31.034  38.950  1.00  0.00    -0.395 OA
HETATM   34  H40 UNL     1      29.425  31.988  38.931  1.00  0.00     0.210 HD
ENDBRANCH   8  33
BRANCH   7  35
HETATM   35  C18 UNL     1      27.529  29.979  36.934  1.00  0.00     0.003 C 
HETATM   36  C19 UNL     1      26.485  31.085  36.824  1.00  0.00     0.005 C 
ENDBRANCH   7  35
BRANCH   2  37
HETATM   37  O5  UNL     1      28.577  29.397  31.792  1.00  0.00    -0.396 OA
HETATM   38  H41 UNL     1      29.160  29.782  31.117  1.00  0.00     0.210 HD
ENDBRANCH   2  37
TORSDOF 10
