REMARK  12 active torsions:
REMARK  status: ('A' for Active; 'I' for Inactive)
REMARK    1  A    between atoms: C1_2  and  N3_17 
REMARK    2  A    between atoms: C3_4  and  O3_25 
REMARK    3  A    between atoms: C4_6  and  S1_7 
REMARK    4  A    between atoms: S1_7  and  C5_8 
REMARK    5  A    between atoms: C5_8  and  C6_9 
REMARK    6  A    between atoms: N3_17  and  S2_18 
REMARK    7  A    between atoms: S2_18  and  N4_19 
REMARK    8  A    between atoms: O3_25  and  C15_26 
REMARK    9  A    between atoms: C15_26  and  C16_27 
REMARK   10  A    between atoms: C16_27  and  C17_28 
REMARK   11  A    between atoms: C16_27  and  O5_30 
REMARK   12  A    between atoms: C17_28  and  O4_29 
ROOT
HETATM    1  N1  UNL     1      30.547  29.068  41.060  1.00  0.00    -0.210 NA
HETATM    2  C1  UNL     1      29.954  29.343  39.895  1.00  0.00     0.124 A 
HETATM    3  C2  UNL     1      30.241  28.719  38.711  1.00  0.00     0.103 A 
HETATM    4  C3  UNL     1      31.254  27.801  38.782  1.00  0.00     0.170 A 
HETATM    5  N2  UNL     1      31.909  27.496  39.912  1.00  0.00    -0.198 NA
HETATM    6  C4  UNL     1      31.521  28.151  41.016  1.00  0.00     0.192 A 
ENDROOT
BRANCH   6   7
HETATM    7  S1  UNL     1      32.356  27.800  42.539  1.00  0.00    -0.085 SA
BRANCH   7   8
HETATM    8  C5  UNL     1      33.854  27.016  41.872  1.00  0.00     0.124 C 
BRANCH   8   9
HETATM    9  C6  UNL     1      35.055  27.303  42.734  1.00  0.00    -0.007 A 
HETATM   10  C7  UNL     1      34.909  27.619  44.095  1.00  0.00     0.011 A 
HETATM   11  C8  UNL     1      36.031  27.869  44.891  1.00  0.00     0.004 A 
HETATM   12  C9  UNL     1      37.309  27.795  44.339  1.00  0.00     0.045 A 
HETATM   13  C10 UNL     1      37.459  27.479  42.992  1.00  0.00     0.155 A 
HETATM   14  C11 UNL     1      36.344  27.233  42.197  1.00  0.00     0.161 A 
HETATM   15  F1  UNL     1      38.689  27.414  42.465  1.00  0.00    -0.203 F 
HETATM   16  F2  UNL     1      36.511  26.935  40.899  1.00  0.00    -0.202 F 
ENDBRANCH   8   9
ENDBRANCH   7   8
ENDBRANCH   6   7
BRANCH   2  17
HETATM   17  N3  UNL     1      28.893  30.269  40.060  1.00  0.00    -0.155 NA
HETATM   18  H7  UNL     1      28.728  30.328  41.063  1.00  0.00     0.148 HD
BRANCH  17  19
HETATM   19  S2  UNL     1      29.221  31.825  39.514  1.00  0.00     0.286 S 
HETATM   20  O1  UNL     1      30.437  31.816  38.736  1.00  0.00    -0.194 OA
HETATM   21  O2  UNL     1      29.032  32.718  40.630  1.00  0.00    -0.194 OA
BRANCH  19  22
HETATM   22  N4  UNL     1      27.939  32.025  38.458  1.00  0.00    -0.197 NA
HETATM   23  C12 UNL     1      28.049  32.232  36.989  1.00  0.00     0.109 C 
HETATM   24  C13 UNL     1      27.155  31.006  36.745  1.00  0.00     0.031 C 
HETATM   25  C14 UNL     1      26.802  31.090  38.238  1.00  0.00     0.109 C 
ENDBRANCH  19  22
ENDBRANCH  17  19
ENDBRANCH   2  17
BRANCH   4  26
HETATM   26  O3  UNL     1      31.560  27.138  37.609  1.00  0.00    -0.327 OA
BRANCH  26  27
HETATM   27  C15 UNL     1      30.445  26.568  36.903  1.00  0.00     0.157 C 
HETATM   28  C18 UNL     1      30.092  25.214  37.523  1.00  0.00     0.043 C 
BRANCH  27  29
HETATM   29  C16 UNL     1      30.841  26.399  35.415  1.00  0.00     0.170 C 
BRANCH  29  30
HETATM   30  C17 UNL     1      31.342  27.721  34.807  1.00  0.00     0.198 C 
BRANCH  30  31
HETATM   31  O4  UNL     1      32.763  27.786  34.751  1.00  0.00    -0.398 OA
HETATM   32  H18 UNL     1      33.083  27.950  35.656  1.00  0.00     0.209 HD
ENDBRANCH  30  31
ENDBRANCH  29  30
BRANCH  29  33
HETATM   33  O5  UNL     1      29.714  25.950  34.657  1.00  0.00    -0.391 OA
HETATM   34  H19 UNL     1      30.058  25.457  33.892  1.00  0.00     0.210 HD
ENDBRANCH  29  33
ENDBRANCH  27  29
ENDBRANCH  26  27
ENDBRANCH   4  26
TORSDOF 12
