REMARK  3 active torsions:
REMARK  status: ('A' for Active; 'I' for Inactive)
REMARK    1  A    between atoms: C2_2  and  O5_23 
REMARK    2  A    between atoms: C6_6  and  O4_22 
REMARK    3  A    between atoms: C15_16  and  O2_20 
ROOT
HETATM    1  C1  UNL     1      31.770  27.359  41.000  1.00  0.00     0.074 A 
HETATM    2  C2  UNL     1      31.781  26.388  40.014  1.00  0.00     0.068 A 
HETATM    3  C3  UNL     1      31.119  26.593  38.808  1.00  0.00     0.044 A 
HETATM    4  C4  UNL     1      30.402  27.785  38.556  1.00  0.00    -0.036 A 
HETATM    5  C5  UNL     1      30.365  28.769  39.571  1.00  0.00     0.079 A 
HETATM    6  C6  UNL     1      31.077  28.545  40.772  1.00  0.00     0.085 A 
HETATM    7  C7  UNL     1      29.797  27.924  37.171  1.00  0.00     0.040 C 
HETATM    8  C8  UNL     1      30.663  28.797  36.254  1.00  0.00     0.005 C 
HETATM    9  O1  UNL     1      28.445  29.909  38.849  1.00  0.00    -0.312 OA
HETATM   10  C9  UNL     1      29.621  30.054  39.487  1.00  0.00     0.297 C 
HETATM   11  C10 UNL     1      30.389  28.579  34.761  1.00  0.00     0.000 C 
HETATM   12  C11 UNL     1      28.981  28.905  34.246  1.00  0.00     0.002 C 
HETATM   13  C12 UNL     1      28.000  32.305  38.276  1.00  0.00     0.032 C 
HETATM   14  C13 UNL     1      27.469  30.982  38.871  1.00  0.00     0.128 C 
HETATM   15  C14 UNL     1      28.631  30.401  34.268  1.00  0.00     0.032 C 
HETATM   16  C15 UNL     1      27.897  30.814  35.546  1.00  0.00     0.118 C 
HETATM   17  C16 UNL     1      27.807  32.332  35.703  1.00  0.00     0.032 C 
HETATM   18  C17 UNL     1      27.210  32.786  37.045  1.00  0.00     0.005 C 
HETATM   19  C18 UNL     1      26.904  31.151  40.281  1.00  0.00     0.040 C 
HETATM   20  O3  UNL     1      30.016  31.060  40.064  1.00  0.00    -0.259 OA
ENDROOT
BRANCH   2  21
HETATM   21  O5  UNL     1      32.449  25.211  40.179  1.00  0.00    -0.361 OA
HETATM   22  H26 UNL     1      31.865  24.586  40.639  1.00  0.00     0.217 HD
ENDBRANCH   2  21
BRANCH   6  23
HETATM   23  O4  UNL     1      31.147  29.462  41.794  1.00  0.00    -0.360 OA
HETATM   24  H25 UNL     1      30.387  30.081  41.713  1.00  0.00     0.217 HD
ENDBRANCH   6  23
BRANCH  16  25
HETATM   25  O2  UNL     1      26.586  30.254  35.553  1.00  0.00    -0.396 OA
HETATM   26  H24 UNL     1      25.948  30.989  35.546  1.00  0.00     0.210 HD
ENDBRANCH  16  25
TORSDOF 3
