REMARK  4 active torsions:
REMARK  status: ('A' for Active; 'I' for Inactive)
REMARK    1  A    between atoms: C2_2  and  N3_7 
REMARK    2  A    between atoms: C3_4  and  C7_11 
REMARK    3  A    between atoms: C4_5  and  C12_17 
REMARK       I    between atoms: N3_7  and  C5_8 
REMARK    4  A    between atoms: C5_8  and  C6_9 
ROOT
HETATM    1  C1  UNL     1      32.425  28.043  42.314  1.00  0.00     0.167 A 
HETATM    2  C2  UNL     1      33.064  27.064  41.568  1.00  0.00     0.148 A 
HETATM    3  N1  UNL     1      32.643  26.757  40.323  1.00  0.00    -0.227 NA
HETATM    4  C3  UNL     1      31.569  27.445  39.833  1.00  0.00     0.100 A 
HETATM    5  C4  UNL     1      30.944  28.457  40.584  1.00  0.00     0.099 A 
HETATM    6  N2  UNL     1      31.362  28.747  41.847  1.00  0.00    -0.254 NA
ENDROOT
BRANCH   2   7
HETATM    7  N3  UNL     1      34.155  26.308  41.994  1.00  0.00    -0.310 N 
HETATM    8  C5  UNL     1      35.406  26.269  41.440  1.00  0.00     0.227 C 
HETATM    9  O1  UNL     1      35.806  26.899  40.474  1.00  0.00    -0.273 OA
HETATM   10  H2  UNL     1      33.963  25.748  42.813  1.00  0.00     0.170 HD
BRANCH   8  11
HETATM   11  C6  UNL     1      36.331  25.357  42.164  1.00  0.00     0.078 A 
HETATM   12  C17 UNL     1      37.393  25.914  43.086  1.00  0.00     0.015 A 
HETATM   13  C18 UNL     1      36.210  25.193  43.661  1.00  0.00     0.015 A 
ENDBRANCH   8  11
ENDBRANCH   2   7
BRANCH   4  14
HETATM   14  C7  UNL     1      31.128  26.986  38.511  1.00  0.00     0.013 A 
HETATM   15  C8  UNL     1      31.317  27.747  37.356  1.00  0.00     0.130 A 
HETATM   16  N4  UNL     1      30.935  27.371  36.111  1.00  0.00    -0.272 NA
HETATM   17  C9  UNL     1      30.320  26.174  36.003  1.00  0.00     0.116 A 
HETATM   18  C10 UNL     1      30.063  25.344  37.079  1.00  0.00     0.020 A 
HETATM   19  C11 UNL     1      30.467  25.761  38.346  1.00  0.00     0.017 A 
ENDBRANCH   4  14
BRANCH   5  20
HETATM   20  C12 UNL     1      29.829  29.294  40.122  1.00  0.00     0.036 A 
HETATM   21  C13 UNL     1      30.060  30.603  39.667  1.00  0.00     0.036 A 
HETATM   22  C14 UNL     1      28.989  31.368  39.228  1.00  0.00     0.117 A 
HETATM   23  N5  UNL     1      27.712  30.926  39.204  1.00  0.00    -0.270 NA
HETATM   24  C15 UNL     1      27.506  29.659  39.628  1.00  0.00     0.159 A 
HETATM   25  C16 UNL     1      28.515  28.824  40.079  1.00  0.00     0.146 A 
HETATM   26  F1  UNL     1      28.213  27.574  40.457  1.00  0.00    -0.204 F 
ENDBRANCH   5  20
TORSDOF 4
