REMARK  5 active torsions:
REMARK  status: ('A' for Active; 'I' for Inactive)
REMARK    1  A    between atoms: C2_3  and  O1_11 
REMARK    2  A    between atoms: C7_8  and  C10_14 
REMARK    3  A    between atoms: C10_14  and  C11_15 
REMARK    4  A    between atoms: C11_15  and  N3_16 
REMARK    5  A    between atoms: C14_19  and  C17_22 
ROOT
HETATM    1  N3  UNL     1      29.652  28.573  39.642  1.00  0.00     0.088 N 
HETATM    2  C12 UNL     1      29.538  29.293  40.925  1.00  0.00     0.273 C 
HETATM    3  C13 UNL     1      30.818  29.264  41.770  1.00  0.00     0.041 C 
HETATM    4  C14 UNL     1      31.614  27.980  41.520  1.00  0.00     0.044 C 
HETATM    5  C15 UNL     1      31.973  27.857  40.027  1.00  0.00     0.041 C 
HETATM    6  C16 UNL     1      31.020  28.643  39.120  1.00  0.00     0.273 C 
ENDROOT
BRANCH   1   7
HETATM    7  C11 UNL     1      28.678  29.067  38.649  1.00  0.00     0.277 C 
BRANCH   7   8
HETATM    8  C10 UNL     1      28.036  30.415  39.036  1.00  0.00     0.076 C 
BRANCH   8   9
HETATM    9  C7  UNL     1      26.546  30.462  38.778  1.00  0.00     0.036 A 
HETATM   10  C6  UNL     1      25.689  30.145  39.959  1.00  0.00     0.257 A 
HETATM   11  N1  UNL     1      24.334  30.126  39.732  1.00  0.00    -0.300 N 
HETATM   12  O2  UNL     1      26.196  29.915  41.056  1.00  0.00    -0.267 OA
HETATM   13  C1  UNL     1      23.828  30.455  38.500  1.00  0.00     0.138 A 
HETATM   14  C5  UNL     1      23.408  29.872  40.825  1.00  0.00     0.134 C 
HETATM   15  C2  UNL     1      22.300  30.479  38.383  1.00  0.00     0.188 C 
HETATM   16  N2  UNL     1      24.551  30.762  37.471  1.00  0.00    -0.237 NA
HETATM   17  C3  UNL     1      21.701  29.237  39.037  1.00  0.00     0.041 C 
HETATM   18  C4  UNL     1      22.311  28.900  40.401  1.00  0.00     0.023 C 
HETATM   19  C8  UNL     1      25.920  30.736  37.616  1.00  0.00     0.044 A 
HETATM   20  C9  UNL     1      26.637  31.052  36.327  1.00  0.00     0.071 C 
BRANCH  15  21
HETATM   21  O1  UNL     1      21.873  30.528  37.028  1.00  0.00    -0.388 OA
HETATM   22  H12 UNL     1      22.694  30.588  36.497  1.00  0.00     0.210 HD
ENDBRANCH  15  21
ENDBRANCH   8   9
ENDBRANCH   7   8
ENDBRANCH   1   7
BRANCH   4  23
HETATM   23  C17 UNL     1      32.813  27.877  42.416  1.00  0.00     0.079 A 
HETATM   24  N4  UNL     1      32.789  28.398  43.654  1.00  0.00    -0.131 NA
HETATM   25  O3  UNL     1      34.028  28.120  44.207  1.00  0.00    -0.212 OA
HETATM   26  C18 UNL     1      34.781  27.428  43.313  1.00  0.00     0.116 A 
HETATM   27  C19 UNL     1      34.056  27.244  42.146  1.00  0.00     0.027 A 
HETATM   28  C20 UNL     1      36.077  26.967  43.518  1.00  0.00     0.082 A 
HETATM   29  C23 UNL     1      34.652  26.543  41.080  1.00  0.00     0.019 A 
HETATM   30  C22 UNL     1      35.959  26.062  41.252  1.00  0.00     0.043 A 
HETATM   31  C21 UNL     1      36.644  26.276  42.449  1.00  0.00     0.119 A 
HETATM   32  F1  UNL     1      37.891  25.798  42.574  1.00  0.00    -0.206 F 
ENDBRANCH   4  23
TORSDOF 5
