REMARK  15 active torsions:
REMARK  status: ('A' for Active; 'I' for Inactive)
REMARK    1  A    between atoms: C1_1  and  C2_2 
REMARK    2  A    between atoms: C1_1  and  C5_5 
REMARK    3  A    between atoms: C3_3  and  C12_12 
REMARK    4  A    between atoms: C4_4  and  C6_6 
REMARK    5  A    between atoms: C6_6  and  C7_7 
REMARK    6  A    between atoms: C8_8  and  C9_9 
REMARK    7  A    between atoms: C9_9  and  C10_10 
REMARK    8  A    between atoms: C10_10  and  C11_11 
REMARK    9  A    between atoms: C11_11  and  C20_21 
REMARK   10  A    between atoms: C12_12  and  C13_13 
REMARK   11  A    between atoms: C14_14  and  C15_15 
REMARK   12  A    between atoms: C15_15  and  C16_16 
REMARK   13  A    between atoms: C16_16  and  C17_17 
REMARK   14  A    between atoms: C17_17  and  C18_18 
REMARK   15  A    between atoms: C20_21  and  O3_23 
ROOT
HETATM    1  C1  UNL     1      32.036  24.873  40.830  1.00  0.00     0.053 C 
ENDROOT
BRANCH   1   2
HETATM    2  C2  UNL     1      31.140  25.442  41.893  1.00  0.00    -0.027 C 
HETATM    3  C3  UNL     1      31.211  26.664  42.448  1.00  0.00    -0.028 C 
BRANCH   3   4
HETATM    4  C12 UNL     1      32.256  27.718  42.195  1.00  0.00     0.061 C 
BRANCH   4   5
HETATM    5  C13 UNL     1      33.250  27.847  43.313  1.00  0.00     0.154 A 
HETATM    6  C14 UNL     1      34.539  27.049  43.398  1.00  0.00     0.151 A 
HETATM    7  O1  UNL     1      34.511  28.402  42.918  1.00  0.00    -0.375 OA
BRANCH   6   8
HETATM    8  C15 UNL     1      34.951  26.021  42.390  1.00  0.00     0.034 C 
BRANCH   8   9
HETATM    9  C16 UNL     1      36.328  26.270  41.765  1.00  0.00     0.002 C 
BRANCH   9  10
HETATM   10  C17 UNL     1      37.501  26.269  42.753  1.00  0.00    -0.000 C 
BRANCH  10  11
HETATM   11  C18 UNL     1      38.334  27.552  42.711  1.00  0.00    -0.005 C 
HETATM   12  C19 UNL     1      38.125  28.391  43.960  1.00  0.00     0.005 C 
ENDBRANCH  10  11
ENDBRANCH   9  10
ENDBRANCH   8   9
ENDBRANCH   6   8
ENDBRANCH   4   5
ENDBRANCH   3   4
ENDBRANCH   1   2
BRANCH   1  13
HETATM   13  C5  UNL     1      31.252  24.392  39.644  1.00  0.00    -0.027 C 
HETATM   14  C4  UNL     1      30.820  25.137  38.610  1.00  0.00    -0.027 C 
BRANCH  14  15
HETATM   15  C6  UNL     1      30.992  26.621  38.432  1.00  0.00     0.053 C 
BRANCH  15  16
HETATM   16  C7  UNL     1      29.828  27.380  39.008  1.00  0.00    -0.027 C 
HETATM   17  C8  UNL     1      29.639  28.710  39.031  1.00  0.00    -0.030 C 
BRANCH  17  18
HETATM   18  C9  UNL     1      30.555  29.776  38.494  1.00  0.00     0.027 C 
BRANCH  18  19
HETATM   19  C10 UNL     1      29.873  30.691  37.467  1.00  0.00     0.014 C 
BRANCH  19  20
HETATM   20  C11 UNL     1      29.071  31.844  38.073  1.00  0.00     0.110 C 
BRANCH  20  21
HETATM   21  C20 UNL     1      29.804  32.515  39.200  1.00  0.00     0.139 C 
HETATM   22  O2  UNL     1      29.581  32.395  40.395  1.00  0.00    -0.650 OA
BRANCH  21  23
HETATM   23  O3  UNL     1      30.766  33.349  38.762  1.00  0.00    -0.776 OA
HETATM   24  H32 UNL     1      30.357  34.239  38.830  1.00  0.00     0.167 HD
ENDBRANCH  21  23
ENDBRANCH  20  21
ENDBRANCH  19  20
ENDBRANCH  18  19
ENDBRANCH  17  18
ENDBRANCH  15  16
ENDBRANCH  14  15
ENDBRANCH   1  13
TORSDOF 15
