REMARK  9 active torsions:
REMARK  status: ('A' for Active; 'I' for Inactive)
REMARK    1  A    between atoms: N1_1  and  C5_8 
REMARK       I    between atoms: N2_4  and  C17_22 
REMARK    2  A    between atoms: C3_5  and  C10_15 
REMARK    3  A    between atoms: C5_8  and  C6_9 
REMARK    4  A    between atoms: C10_15  and  C11_16 
REMARK       I    between atoms: C17_22  and  N5_23 
REMARK    5  A    between atoms: N5_23  and  C18_25 
REMARK    6  A    between atoms: C18_25  and  C19_26 
REMARK    7  A    between atoms: C18_25  and  C23_30 
REMARK    8  A    between atoms: C19_26  and  C20_27 
REMARK    9  A    between atoms: C23_30  and  O3_31 
ROOT
HETATM    1  N1  UNL     1      32.088  26.820  42.201  1.00  0.00    -0.343 N 
HETATM    2  C1  UNL     1      31.378  27.927  42.830  1.00  0.00     0.146 C 
HETATM    3  C2  UNL     1      31.217  29.114  41.889  1.00  0.00     0.148 C 
HETATM    4  N2  UNL     1      30.500  28.699  40.688  1.00  0.00    -0.319 N 
HETATM    5  C3  UNL     1      31.008  27.483  40.017  1.00  0.00     0.185 C 
HETATM    6  C4  UNL     1      31.897  26.520  40.856  1.00  0.00     0.243 C 
HETATM    7  O1  UNL     1      32.398  25.518  40.339  1.00  0.00    -0.271 OA
HETATM    8  C17 UNL     1      29.381  29.305  40.157  1.00  0.00     0.319 C 
HETATM    9  N5  UNL     1      29.027  30.493  40.725  1.00  0.00    -0.329 N 
HETATM   10  O2  UNL     1      28.733  28.812  39.239  1.00  0.00    -0.247 OA
HETATM   11  H20 UNL     1      29.772  31.063  41.105  1.00  0.00     0.165 HD
ENDROOT
BRANCH   5  12
HETATM   12  C10 UNL     1      31.700  27.800  38.668  1.00  0.00     0.073 C 
BRANCH  12  13
HETATM   13  C11 UNL     1      31.123  27.061  37.478  1.00  0.00    -0.056 A 
HETATM   14  C12 UNL     1      31.366  27.513  36.174  1.00  0.00     0.007 A 
HETATM   15  C13 UNL     1      30.809  26.851  35.078  1.00  0.00     0.001 A 
HETATM   16  C14 UNL     1      30.002  25.731  35.275  1.00  0.00     0.000 A 
HETATM   17  C15 UNL     1      29.759  25.268  36.566  1.00  0.00     0.001 A 
HETATM   18  C16 UNL     1      30.316  25.929  37.662  1.00  0.00     0.007 A 
ENDBRANCH  12  13
ENDBRANCH   5  12
BRANCH   9  19
HETATM   19  C18 UNL     1      27.840  31.233  40.272  1.00  0.00     0.184 C 
BRANCH  19  20
HETATM   20  C19 UNL     1      26.586  30.648  40.939  1.00  0.00     0.040 C 
BRANCH  20  21
HETATM   21  C20 UNL     1      25.609  29.964  39.961  1.00  0.00    -0.020 C 
HETATM   22  C21 UNL     1      24.172  30.065  40.484  1.00  0.00     0.009 C 
HETATM   23  C22 UNL     1      25.672  30.590  38.565  1.00  0.00     0.009 C 
ENDBRANCH  20  21
ENDBRANCH  19  20
BRANCH  19  24
HETATM   24  C23 UNL     1      28.077  32.697  40.626  1.00  0.00     0.163 C 
HETATM   25  O4  UNL     1      27.259  33.455  41.131  1.00  0.00    -0.648 OA
BRANCH  24  26
HETATM   26  O3  UNL     1      29.327  33.121  40.351  1.00  0.00    -0.775 OA
HETATM   27  H31 UNL     1      29.217  34.059  40.089  1.00  0.00     0.167 HD
ENDBRANCH  24  26
ENDBRANCH  19  24
ENDBRANCH   9  19
BRANCH   1  28
HETATM   28  C5  UNL     1      32.815  25.886  43.049  1.00  0.00     0.185 C 
BRANCH  28  29
HETATM   29  C6  UNL     1      34.276  26.139  42.954  1.00  0.00     0.052 A 
HETATM   30  C7  UNL     1      35.085  27.122  43.496  1.00  0.00     0.056 A 
HETATM   31  N3  UNL     1      36.393  26.923  43.123  1.00  0.00    -0.247 NA
HETATM   32  C9  UNL     1      34.712  28.264  44.362  1.00  0.00     0.072 C 
HETATM   33  C8  UNL     1      36.390  25.842  42.378  1.00  0.00     0.207 A 
HETATM   34  N4  UNL     1      35.135  25.325  42.258  1.00  0.00    -0.351 N 
HETATM   35  H9  UNL     1      34.892  24.490  41.744  1.00  0.00     0.166 HD
ENDBRANCH  28  29
ENDBRANCH   1  28
TORSDOF 9
