REMARK  6 active torsions:
REMARK  status: ('A' for Active; 'I' for Inactive)
REMARK    1  A    between atoms: C1_1  and  C2_2 
REMARK       I    between atoms: C2_2  and  N1_4 
REMARK    2  A    between atoms: N1_4  and  C4_6 
REMARK    3  A    between atoms: N1_4  and  C5_7 
REMARK    4  A    between atoms: N2_15  and  C15_18 
REMARK    5  A    between atoms: C15_18  and  C16_19 
REMARK    6  A    between atoms: C16_19  and  C18_21 
ROOT
HETATM    1  C4  UNL     1      30.052  28.729  38.711  1.00  0.00     0.096 C 
HETATM    2  C11 UNL     1      30.873  29.056  39.963  1.00  0.00     0.056 C 
HETATM    3  C12 UNL     1      31.874  27.938  40.256  1.00  0.00     0.275 C 
HETATM    4  N2  UNL     1      31.209  26.628  40.434  1.00  0.00     0.093 N 
HETATM    5  C13 UNL     1      30.443  26.291  39.223  1.00  0.00     0.275 C 
HETATM    6  C14 UNL     1      29.396  27.357  38.888  1.00  0.00     0.056 C 
ENDROOT
BRANCH   4   7
HETATM    7  C15 UNL     1      32.214  25.585  40.822  1.00  0.00     0.225 C 
HETATM    8  C17 UNL     1      31.695  24.139  40.673  1.00  0.00     0.043 C 
BRANCH   7   9
HETATM    9  C16 UNL     1      32.659  25.798  42.299  1.00  0.00     0.100 C 
BRANCH   9  10
HETATM   10  C18 UNL     1      34.037  26.353  42.421  1.00  0.00     0.056 A 
HETATM   11  O2  UNL     1      34.442  26.700  43.676  1.00  0.00    -0.314 OA
HETATM   12  C19 UNL     1      35.714  27.173  43.566  1.00  0.00     0.086 A 
HETATM   13  C20 UNL     1      36.135  27.127  42.243  1.00  0.00     0.000 A 
HETATM   14  C22 UNL     1      36.496  27.640  44.620  1.00  0.00     0.038 A 
HETATM   15  C21 UNL     1      35.045  26.591  41.509  1.00  0.00     0.047 A 
HETATM   16  C25 UNL     1      37.431  27.578  41.934  1.00  0.00     0.014 A 
HETATM   17  C24 UNL     1      38.244  28.054  42.975  1.00  0.00     0.001 A 
HETATM   18  C23 UNL     1      37.783  28.084  44.294  1.00  0.00     0.003 A 
ENDBRANCH   9  10
ENDBRANCH   7   9
ENDBRANCH   4   7
BRANCH   1  19
HETATM   19  N1  UNL     1      29.136  29.830  38.331  1.00  0.00    -0.313 N 
HETATM   20  C2  UNL     1      29.177  30.268  36.998  1.00  0.00     0.224 C 
HETATM   21  O1  UNL     1      29.899  29.736  36.151  1.00  0.00    -0.273 OA
BRANCH  20  22
HETATM   22  C1  UNL     1      28.243  31.418  36.625  1.00  0.00     0.099 C 
HETATM   23  C3  UNL     1      26.836  30.935  36.309  1.00  0.00     0.014 C 
ENDBRANCH  20  22
BRANCH  19  24
HETATM   24  C5  UNL     1      28.644  30.674  39.363  1.00  0.00     0.037 A 
HETATM   25  C6  UNL     1      29.247  31.908  39.626  1.00  0.00     0.030 A 
HETATM   26  C7  UNL     1      28.747  32.729  40.637  1.00  0.00     0.002 A 
HETATM   27  C8  UNL     1      27.640  32.320  41.382  1.00  0.00     0.000 A 
HETATM   28  C9  UNL     1      27.034  31.092  41.119  1.00  0.00     0.002 A 
HETATM   29  C10 UNL     1      27.535  30.269  40.109  1.00  0.00     0.030 A 
ENDBRANCH  19  24
ENDBRANCH   1  19
TORSDOF 6
