REMARK  9 active torsions:
REMARK  status: ('A' for Active; 'I' for Inactive)
REMARK    1  A    between atoms: C1_1  and  C2_2 
REMARK       I    between atoms: C2_2  and  N1_4 
REMARK    2  A    between atoms: N1_4  and  C4_6 
REMARK    3  A    between atoms: N1_4  and  C5_7 
REMARK    4  A    between atoms: C15_18  and  C16_19 
REMARK    5  A    between atoms: C16_19  and  C17_20 
REMARK    6  A    between atoms: C18_21  and  O3_28 
REMARK    7  A    between atoms: C20_23  and  C25_30 
REMARK    8  A    between atoms: C21_24  and  O2_26 
REMARK    9  A    between atoms: C25_30  and  C26_31 
ROOT
HETATM    1  C4  UNL     1      29.808  28.518  38.589  1.00  0.00     0.096 C 
HETATM    2  C11 UNL     1      29.268  28.070  39.953  1.00  0.00     0.045 C 
HETATM    3  C12 UNL     1      29.980  26.794  40.389  1.00  0.00     0.119 A 
HETATM    4  N2  UNL     1      31.377  27.017  40.374  1.00  0.00    -0.412 N 
HETATM    5  C13 UNL     1      31.809  28.324  40.116  1.00  0.00     0.119 A 
HETATM    6  C14 UNL     1      31.261  28.808  38.781  1.00  0.00     0.045 C 
HETATM    7  C15 UNL     1      32.248  26.029  40.827  1.00  0.00     0.121 A 
HETATM    8 CL1  UNL     1      31.439  27.241  40.444  1.00  0.00    -0.145 Cl
HETATM    9  H39 UNL     1      32.155  26.210  41.021  1.00  0.00     0.145 HD
ENDROOT
BRANCH   7  10
HETATM   10  C16 UNL     1      32.169  25.738  42.331  1.00  0.00     0.061 C 
BRANCH  10  11
HETATM   11  C17 UNL     1      33.459  26.253  42.887  1.00  0.00    -0.021 A 
HETATM   12  C18 UNL     1      33.557  27.575  43.342  1.00  0.00     0.075 A 
HETATM   13  C19 UNL     1      34.756  28.037  43.827  1.00  0.00     0.047 A 
HETATM   14  C20 UNL     1      35.913  27.253  43.895  1.00  0.00    -0.022 A 
HETATM   15  C21 UNL     1      35.793  25.959  43.441  1.00  0.00     0.075 A 
HETATM   16  C22 UNL     1      34.584  25.485  42.951  1.00  0.00     0.047 A 
BRANCH  12  17
HETATM   17  O3  UNL     1      32.418  28.320  43.266  1.00  0.00    -0.355 OA
HETATM   18  C24 UNL     1      31.355  28.271  44.152  1.00  0.00     0.210 C 
ENDBRANCH  12  17
BRANCH  14  19
HETATM   19  C25 UNL     1      37.165  27.821  44.448  1.00  0.00     0.041 C 
BRANCH  19  20
HETATM   20  C26 UNL     1      37.947  28.667  43.515  1.00  0.00     0.000 C 
HETATM   21  C27 UNL     1      38.791  27.972  42.511  1.00  0.00     0.005 C 
ENDBRANCH  19  20
ENDBRANCH  14  19
BRANCH  15  22
HETATM   22  O2  UNL     1      36.885  25.118  43.467  1.00  0.00    -0.355 OA
HETATM   23  C23 UNL     1      36.984  24.047  42.556  1.00  0.00     0.210 C 
ENDBRANCH  15  22
ENDBRANCH  10  11
ENDBRANCH   7  10
BRANCH   1  24
HETATM   24  N1  UNL     1      29.042  29.688  38.196  1.00  0.00    -0.313 N 
HETATM   25  C2  UNL     1      29.014  30.091  36.830  1.00  0.00     0.224 C 
HETATM   26  O1  UNL     1      29.689  29.438  35.980  1.00  0.00    -0.273 OA
BRANCH  25  27
HETATM   27  C1  UNL     1      28.234  31.240  36.364  1.00  0.00     0.099 C 
HETATM   28  C3  UNL     1      27.864  31.105  34.908  1.00  0.00     0.014 C 
ENDBRANCH  25  27
BRANCH  24  29
HETATM   29  C5  UNL     1      28.319  30.469  39.155  1.00  0.00     0.037 A 
HETATM   30  C6  UNL     1      29.027  31.503  39.731  1.00  0.00     0.030 A 
HETATM   31  C7  UNL     1      28.437  32.302  40.662  1.00  0.00     0.002 A 
HETATM   32  C8  UNL     1      27.132  32.060  41.016  1.00  0.00     0.000 A 
HETATM   33  C9  UNL     1      26.449  31.035  40.437  1.00  0.00     0.002 A 
HETATM   34  C10 UNL     1      27.024  30.217  39.496  1.00  0.00     0.030 A 
ENDBRANCH  24  29
ENDBRANCH   1  24
TORSDOF 9
