REMARK  8 active torsions:
REMARK  status: ('A' for Active; 'I' for Inactive)
REMARK    1  A    between atoms: C1_1  and  C2_2 
REMARK       I    between atoms: C2_2  and  N1_4 
REMARK    2  A    between atoms: N1_4  and  C4_6 
REMARK    3  A    between atoms: N1_4  and  C5_7 
REMARK    4  A    between atoms: C15_18  and  C16_19 
REMARK    5  A    between atoms: C16_19  and  C17_20 
REMARK    6  A    between atoms: C18_21  and  O3_30 
REMARK    7  A    between atoms: C20_23  and  C23_26 
REMARK    8  A    between atoms: C21_24  and  O2_28 
ROOT
HETATM    1  C4  UNL     1      33.550  26.793  42.786  1.00  0.00     0.096 C 
HETATM    2  C11 UNL     1      32.704  27.859  43.455  1.00  0.00     0.056 C 
HETATM    3  C12 UNL     1      31.767  28.574  42.551  1.00  0.00     0.275 C 
HETATM    4  N2  UNL     1      31.081  27.773  41.572  1.00  0.00     0.093 N 
HETATM    5  C13 UNL     1      31.895  26.765  40.996  1.00  0.00     0.275 A 
HETATM    6  C14 UNL     1      33.385  26.959  41.303  1.00  0.00     0.056 C 
HETATM    7  C15 UNL     1      30.439  28.684  40.667  1.00  0.00     0.223 A 
HETATM    8  C24 UNL     1      29.731  29.777  41.424  1.00  0.00     0.043 C 
HETATM    9 CL1  UNL     1      30.757  26.838  41.244  1.00  0.00    -0.145 Cl
HETATM   10  H39 UNL     1      32.058  27.080  41.585  1.00  0.00     0.145 HD
ENDROOT
BRANCH   7  11
HETATM   11  C16 UNL     1      29.729  28.128  39.509  1.00  0.00     0.076 C 
BRANCH  11  12
HETATM   12  C17 UNL     1      29.408  28.938  38.366  1.00  0.00    -0.020 A 
HETATM   13  C18 UNL     1      30.094  28.934  37.190  1.00  0.00     0.075 A 
HETATM   14  C19 UNL     1      29.687  29.733  36.104  1.00  0.00     0.047 A 
HETATM   15  C20 UNL     1      28.598  30.535  36.182  1.00  0.00    -0.022 A 
HETATM   16  C21 UNL     1      27.894  30.547  37.370  1.00  0.00     0.075 A 
HETATM   17  C22 UNL     1      28.289  29.770  38.434  1.00  0.00     0.047 A 
BRANCH  13  18
HETATM   18  O3  UNL     1      31.212  28.135  37.053  1.00  0.00    -0.355 OA
HETATM   19  C26 UNL     1      31.210  27.151  36.039  1.00  0.00     0.210 C 
ENDBRANCH  13  18
BRANCH  15  20
HETATM   20  C23 UNL     1      28.098  31.409  35.082  1.00  0.00     0.037 C 
HETATM   21  C27 UNL     1      27.977  30.680  33.779  1.00  0.00     0.010 C 
ENDBRANCH  15  20
BRANCH  16  22
HETATM   22  O2  UNL     1      26.755  31.371  37.480  1.00  0.00    -0.355 OA
HETATM   23  C25 UNL     1      25.474  30.845  37.268  1.00  0.00     0.210 C 
ENDBRANCH  16  22
ENDBRANCH  11  12
ENDBRANCH   7  11
BRANCH   1  24
HETATM   24  N1  UNL     1      34.913  26.834  43.201  1.00  0.00    -0.313 N 
HETATM   25  C2  UNL     1      35.518  28.049  43.578  1.00  0.00     0.224 C 
HETATM   26  O1  UNL     1      34.849  29.108  43.529  1.00  0.00    -0.273 OA
BRANCH  25  27
HETATM   27  C1  UNL     1      36.947  28.088  44.039  1.00  0.00     0.099 C 
HETATM   28  C3  UNL     1      37.787  28.564  42.887  1.00  0.00     0.014 C 
ENDBRANCH  25  27
BRANCH  24  29
HETATM   29  C5  UNL     1      35.669  25.640  43.252  1.00  0.00     0.037 A 
HETATM   30  C6  UNL     1      35.633  24.808  44.364  1.00  0.00     0.030 A 
HETATM   31  C7  UNL     1      36.346  23.642  44.457  1.00  0.00     0.002 A 
HETATM   32  C8  UNL     1      37.148  23.296  43.354  1.00  0.00     0.000 A 
HETATM   33  C9  UNL     1      37.178  24.128  42.255  1.00  0.00     0.002 A 
HETATM   34  C10 UNL     1      36.467  25.298  42.153  1.00  0.00     0.030 A 
ENDBRANCH  24  29
ENDBRANCH   1  24
TORSDOF 8
