REMARK  6 active torsions:
REMARK  status: ('A' for Active; 'I' for Inactive)
REMARK    1  A    between atoms: C2_2  and  N1_7 
REMARK    2  A    between atoms: N1_7  and  S1_8 
REMARK    3  A    between atoms: C8_12  and  C9_13 
REMARK    4  A    between atoms: C8_12  and  O3_14 
REMARK    5  A    between atoms: C9_13  and  N2_15 
REMARK    6  A    between atoms: N2_15  and  C10_16 
ROOT
HETATM    1  C1  UNL     1      30.022  29.447  40.956  1.00  0.00     0.031 C 
HETATM    2  C2  UNL     1      30.366  28.297  40.233  1.00  0.00     0.042 C 
HETATM    3  C3  UNL     1      30.604  28.443  38.898  1.00  0.00     0.031 A 
HETATM    4  C4  UNL     1      30.507  29.696  38.280  1.00  0.00     0.012 A 
HETATM    5  C5  UNL     1      30.173  30.817  38.981  1.00  0.00    -0.028 A 
HETATM    6  C6  UNL     1      29.931  30.678  40.332  1.00  0.00     0.012 A 
HETATM    7  C8  UNL     1      30.087  32.114  38.278  1.00  0.00     0.179 A 
HETATM    8 CL1  UNL     1      29.929  30.121  38.764  1.00  0.00    -0.145 Cl
HETATM    9  H21 UNL     1      29.379  31.233  38.184  1.00  0.00     0.145 HD
ENDROOT
BRANCH   7  10
HETATM   10  C9  UNL     1      28.637  32.359  37.944  1.00  0.00     0.306 C 
BRANCH  10  11
HETATM   11  N2  UNL     1      28.486  32.518  36.524  1.00  0.00     0.090 N 
HETATM   12  H19 UNL     1      28.401  33.484  36.195  1.00  0.00     0.316 HD
BRANCH  11  13
HETATM   13  C10 UNL     1      27.519  31.612  35.959  1.00  0.00     0.212 C 
HETATM   14  C11 UNL     1      26.714  30.915  37.023  1.00  0.00     0.042 C 
HETATM   15  C12 UNL     1      28.253  30.621  35.089  1.00  0.00     0.042 C 
ENDBRANCH  11  13
ENDBRANCH  10  11
ENDBRANCH   7  10
BRANCH   7  16
HETATM   16  O3  UNL     1      30.676  33.160  38.936  1.00  0.00    -0.389 OA
HETATM   17  H18 UNL     1      31.042  33.867  38.359  1.00  0.00     0.210 HD
ENDBRANCH   7  16
BRANCH   2  18
HETATM   18  N1  UNL     1      30.432  27.101  40.965  1.00  0.00    -0.285 N 
HETATM   19  H11 UNL     1      29.522  26.748  41.397  1.00  0.00     0.178 HD
BRANCH  18  20
HETATM   20  S1  UNL     1      31.837  26.150  41.232  1.00  0.00     0.227 S 
HETATM   21  C7  UNL     1      31.649  24.600  40.381  1.00  0.00     0.186 C 
HETATM   22  O1  UNL     1      33.074  26.827  40.712  1.00  0.00    -0.206 OA
HETATM   23  O2  UNL     1      31.973  25.909  42.714  1.00  0.00    -0.206 OA
ENDBRANCH  18  20
ENDBRANCH   2  18
TORSDOF 6
