REMARK  8 active torsions:
REMARK  status: ('A' for Active; 'I' for Inactive)
REMARK    1  A    between atoms: C1_1  and  C2_2 
REMARK       I    between atoms: C1_1  and  N1_4 
REMARK    2  A    between atoms: N1_4  and  C11_15 
REMARK    3  A    between atoms: N3_6  and  C9_13 
REMARK    4  A    between atoms: C9_13  and  C10_14 
REMARK    5  A    between atoms: C10_14  and  C16_22 
REMARK    6  A    between atoms: C11_15  and  C12_16 
REMARK    7  A    between atoms: C11_15  and  C13_17 
REMARK       I    between atoms: C13_17  and  N4_18 
REMARK    8  A    between atoms: C16_22  and  C17_23 
ROOT
HETATM    1  C2  UNL     1      30.523  27.950  39.453  1.00  0.00     0.157 A 
HETATM    2  N2  UNL     1      30.466  27.890  38.110  1.00  0.00    -0.166 NA
HETATM    3  N3  UNL     1      30.691  26.599  37.816  1.00  0.00    -0.268 N 
HETATM    4  C3  UNL     1      30.929  25.808  38.911  1.00  0.00     0.065 A 
HETATM    5  C4  UNL     1      30.833  26.665  40.006  1.00  0.00     0.028 A 
HETATM    6  C5  UNL     1      31.216  24.441  39.041  1.00  0.00     0.032 A 
HETATM    7  C6  UNL     1      31.421  23.942  40.331  1.00  0.00     0.002 A 
HETATM    8  C7  UNL     1      31.348  24.776  41.443  1.00  0.00     0.001 A 
HETATM    9  C8  UNL     1      31.060  26.138  41.296  1.00  0.00     0.016 A 
ENDROOT
BRANCH   1  10
HETATM   10  C1  UNL     1      30.282  29.220  40.162  1.00  0.00     0.273 C 
HETATM   11  O1  UNL     1      30.848  29.531  41.209  1.00  0.00    -0.266 OA
HETATM   12  N1  UNL     1      29.389  30.075  39.536  1.00  0.00    -0.342 N 
HETATM   13  H10 UNL     1      29.316  29.944  38.533  1.00  0.00     0.163 HD
BRANCH  12  14
HETATM   14  C11 UNL     1      29.270  31.459  39.993  1.00  0.00     0.184 C 
BRANCH  14  15
HETATM   15  C12 UNL     1      27.888  31.756  40.649  1.00  0.00    -0.022 C 
HETATM   16  C14 UNL     1      27.885  31.291  42.119  1.00  0.00     0.017 C 
HETATM   17  C15 UNL     1      26.793  30.962  39.902  1.00  0.00     0.017 C 
HETATM   18  C19 UNL     1      27.516  33.250  40.607  1.00  0.00     0.017 C 
ENDBRANCH  14  15
BRANCH  14  19
HETATM   19  C13 UNL     1      29.561  32.332  38.754  1.00  0.00     0.239 C 
HETATM   20  N4  UNL     1      30.468  33.339  38.928  1.00  0.00    -0.368 N 
HETATM   21  H18 UNL     1      30.742  33.810  38.074  1.00  0.00     0.159 HD
HETATM   22  H19 UNL     1      31.204  33.217  39.614  1.00  0.00     0.159 HD
HETATM   23  O2  UNL     1      29.010  32.166  37.667  1.00  0.00    -0.271 OA
ENDBRANCH  14  19
ENDBRANCH  12  14
ENDBRANCH   1  10
BRANCH   3  24
HETATM   24  C9  UNL     1      30.692  26.185  36.425  1.00  0.00     0.151 C 
BRANCH  24  25
HETATM   25  C10 UNL     1      31.215  27.256  35.464  1.00  0.00     0.022 C 
BRANCH  25  26
HETATM   26  C16 UNL     1      30.280  27.498  34.274  1.00  0.00     0.001 C 
BRANCH  26  27
HETATM   27  C17 UNL     1      29.519  26.243  33.838  1.00  0.00    -0.004 C 
HETATM   28  C18 UNL     1      28.521  26.494  32.718  1.00  0.00     0.005 C 
ENDBRANCH  26  27
ENDBRANCH  25  26
ENDBRANCH  24  25
ENDBRANCH   3  24
TORSDOF 8
