REMARK  8 active torsions:
REMARK  status: ('A' for Active; 'I' for Inactive)
REMARK    1  A    between atoms: C2_2  and  N1_8 
REMARK    2  A    between atoms: C4_4  and  O1_9 
REMARK    3  A    between atoms: C5_5  and  C7_10 
REMARK       I    between atoms: C7_10  and  N2_11 
REMARK    4  A    between atoms: N2_11  and  C8_13 
REMARK    5  A    between atoms: C8_13  and  C9_14 
REMARK    6  A    between atoms: C9_14  and  N3_15 
REMARK    7  A    between atoms: N3_15  and  C10_16 
REMARK    8  A    between atoms: N3_15  and  C11_17 
ROOT
HETATM    1  C1  UNL     1      30.754  28.121  37.296  1.00  0.00     0.033 A 
HETATM    2  C2  UNL     1      30.082  29.348  37.218  1.00  0.00     0.026 A 
HETATM    3  C3  UNL     1      29.937  30.101  38.392  1.00  0.00     0.062 A 
HETATM    4  C4  UNL     1      30.365  29.616  39.641  1.00  0.00     0.085 A 
HETATM    5  C5  UNL     1      30.993  28.355  39.707  1.00  0.00     0.066 A 
HETATM    6  C6  UNL     1      31.185  27.620  38.524  1.00  0.00     0.041 A 
HETATM    7 BR1  UNL     1      31.070  27.078  35.739  1.00  0.00    -0.049 Br
ENDROOT
BRANCH   5   8
HETATM    8  C7  UNL     1      31.497  27.710  40.964  1.00  0.00     0.254 C 
HETATM    9  N2  UNL     1      32.168  28.501  41.865  1.00  0.00    -0.355 N 
HETATM   10  H5  UNL     1      32.217  29.499  41.684  1.00  0.00     0.162 HD
HETATM   11  O2  UNL     1      31.307  26.513  41.163  1.00  0.00    -0.268 OA
BRANCH   9  12
HETATM   12  C8  UNL     1      32.644  27.999  43.141  1.00  0.00     0.153 C 
BRANCH  12  13
HETATM   13  C9  UNL     1      34.183  27.948  43.211  1.00  0.00     0.292 C 
BRANCH  13  14
HETATM   14  N3  UNL     1      34.724  26.588  43.428  1.00  0.00     0.089 N 
BRANCH  14  15
HETATM   15  C10 UNL     1      35.988  26.631  44.184  1.00  0.00     0.268 C 
HETATM   16  C13 UNL     1      35.964  27.589  45.371  1.00  0.00     0.037 C 
ENDBRANCH  14  15
BRANCH  14  17
HETATM   17  C11 UNL     1      34.810  25.844  42.160  1.00  0.00     0.268 C 
HETATM   18  C12 UNL     1      35.627  26.489  41.043  1.00  0.00     0.037 C 
ENDBRANCH  14  17
ENDBRANCH  13  14
ENDBRANCH  12  13
ENDBRANCH   9  12
ENDBRANCH   5   8
BRANCH   4  19
HETATM   19  O1  UNL     1      30.205  30.314  40.811  1.00  0.00    -0.355 OA
HETATM   20  C14 UNL     1      28.892  30.728  41.174  1.00  0.00     0.210 C 
ENDBRANCH   4  19
BRANCH   2  21
HETATM   21  N1  UNL     1      29.746  29.936  35.987  1.00  0.00    -0.302 NA
HETATM   22  H3  UNL     1      28.929  30.537  36.010  1.00  0.00     0.124 HD
HETATM   23  H4  UNL     1      29.716  29.264  35.222  1.00  0.00     0.124 HD
ENDBRANCH   2  21
TORSDOF 8
