REMARK  7 active torsions:
REMARK  status: ('A' for Active; 'I' for Inactive)
REMARK    1  A    between atoms: O1_1  and  C1_2 
REMARK    2  A    between atoms: C1_2  and  C2_3 
REMARK    3  A    between atoms: C2_3  and  C3_5 
REMARK    4  A    between atoms: C2_3  and  C4_6 
REMARK    5  A    between atoms: C4_6  and  O3_7 
REMARK    6  A    between atoms: C13_16  and  C14_17 
REMARK    7  A    between atoms: N1_20  and  C18_22 
ROOT
HETATM    1  O1  UNL     1      30.290  30.298  40.138  1.00  0.00    -0.315 OA
HETATM    2  C10 UNL     1      31.587  28.170  38.427  1.00  0.00     0.036 A 
HETATM    3  C11 UNL     1      30.115  27.908  38.112  1.00  0.00     0.036 A 
HETATM    4  C12 UNL     1      29.560  27.177  39.334  1.00  0.00     0.193 A 
HETATM    5  C13 UNL     1      29.113  28.181  40.416  1.00  0.00     0.066 A 
HETATM    6  C14 UNL     1      30.232  29.100  40.943  1.00  0.00     0.136 A 
HETATM    7  C15 UNL     1      31.637  28.470  40.921  1.00  0.00     0.066 C 
HETATM    8  C16 UNL     1      31.852  27.466  39.770  1.00  0.00     0.193 A 
HETATM    9  N1  UNL     1      30.771  26.344  39.833  1.00  0.00    -0.059 N 
HETATM   10  C17 UNL     1      30.581  25.774  41.262  1.00  0.00     0.274 C 
HETATM   11 BR1  UNL     1      30.267  28.810  38.954  1.00  0.00     0.000 Br
ENDROOT
BRANCH   1  12
HETATM   12  C1  UNL     1      29.372  31.272  40.418  1.00  0.00     0.270 C 
HETATM   13  O2  UNL     1      28.838  31.416  41.510  1.00  0.00    -0.264 OA
BRANCH  12  14
HETATM   14  C2  UNL     1      29.086  32.135  39.201  1.00  0.00     0.142 C 
BRANCH  14  15
HETATM   15  C3  UNL     1      27.890  31.597  38.424  1.00  0.00    -0.043 A 
HETATM   16  C5  UNL     1      26.778  31.003  39.040  1.00  0.00     0.008 A 
HETATM   17  C6  UNL     1      25.698  30.550  38.278  1.00  0.00     0.001 A 
HETATM   18  C7  UNL     1      25.713  30.681  36.892  1.00  0.00     0.000 A 
HETATM   19  C8  UNL     1      26.810  31.262  36.262  1.00  0.00     0.001 A 
HETATM   20  C9  UNL     1      27.890  31.716  37.022  1.00  0.00     0.008 A 
ENDBRANCH  14  15
BRANCH  14  21
HETATM   21  C4  UNL     1      30.411  32.304  38.443  1.00  0.00     0.183 C 
BRANCH  21  22
HETATM   22  O3  UNL     1      31.000  33.580  38.660  1.00  0.00    -0.400 OA
HETATM   23  H4  UNL     1      31.850  33.617  38.185  1.00  0.00     0.209 HD
ENDBRANCH  21  22
ENDBRANCH  14  21
ENDBRANCH  12  14
ENDBRANCH   1  12
BRANCH   9  24
HETATM   24  C18 UNL     1      31.112  25.045  38.964  1.00  0.00     0.183 C 
HETATM   25  C19 UNL     1      31.401  23.830  39.852  1.00  0.00     0.040 C 
HETATM   26  C20 UNL     1      30.122  24.667  37.866  1.00  0.00     0.040 C 
ENDBRANCH   9  24
TORSDOF 7
