REMARK  6 active torsions:
REMARK  status: ('A' for Active; 'I' for Inactive)
REMARK    1  A    between atoms: C4_4  and  O1_7 
REMARK    2  A    between atoms: C5_5  and  N1_22 
REMARK    3  A    between atoms: O1_7  and  C7_8 
REMARK    4  A    between atoms: C7_8  and  C8_9 
REMARK    5  A    between atoms: C10_12  and  C12_15 
REMARK    6  A    between atoms: C12_15  and  C13_16 
ROOT
HETATM    1  C8  UNL     1      31.152  27.932  41.821  1.00  0.00     0.157 C 
HETATM    2  O2  UNL     1      30.791  26.579  41.491  1.00  0.00    -0.314 OA
HETATM    3  C9  UNL     1      31.913  25.802  41.418  1.00  0.00     0.263 C 
HETATM    4  C10 UNL     1      33.124  26.615  41.790  1.00  0.00     0.092 C 
HETATM    5  C11 UNL     1      32.499  27.801  42.501  1.00  0.00     0.049 C 
HETATM    6  O3  UNL     1      31.916  24.642  41.037  1.00  0.00    -0.265 OA
ENDROOT
BRANCH   1   7
HETATM    7  C7  UNL     1      31.189  28.784  40.543  1.00  0.00     0.208 C 
BRANCH   7   8
HETATM    8  O1  UNL     1      30.036  28.446  39.750  1.00  0.00    -0.346 OA
BRANCH   8   9
HETATM    9  C4  UNL     1      30.361  28.323  38.428  1.00  0.00     0.101 A 
HETATM   10  C3  UNL     1      30.845  27.100  37.959  1.00  0.00     0.039 A 
HETATM   11  C2  UNL     1      31.112  26.928  36.597  1.00  0.00     0.003 A 
HETATM   12  C1  UNL     1      30.877  27.968  35.695  1.00  0.00     0.003 A 
HETATM   13  C6  UNL     1      30.373  29.187  36.149  1.00  0.00     0.039 A 
HETATM   14  C5  UNL     1      30.117  29.353  37.516  1.00  0.00     0.136 A 
BRANCH  14  15
HETATM   15  N1  UNL     1      29.605  30.634  37.970  1.00  0.00    -0.113 N 
HETATM   16  O4  UNL     1      28.373  30.774  37.993  1.00  0.00    -0.532 OA
HETATM   17  O5  UNL     1      30.429  31.516  38.254  1.00  0.00    -0.532 OA
ENDBRANCH  14  15
ENDBRANCH   8   9
ENDBRANCH   7   8
ENDBRANCH   1   7
BRANCH   4  18
HETATM   18  C12 UNL     1      34.193  25.842  42.565  1.00  0.00     0.053 C 
BRANCH  18  19
HETATM   19  C13 UNL     1      35.438  26.610  42.941  1.00  0.00    -0.057 A 
HETATM   20  C14 UNL     1      36.361  26.991  41.958  1.00  0.00     0.007 A 
HETATM   21  C15 UNL     1      37.507  27.712  42.299  1.00  0.00     0.001 A 
HETATM   22  C16 UNL     1      37.743  28.058  43.628  1.00  0.00     0.000 A 
HETATM   23  C17 UNL     1      36.837  27.678  44.616  1.00  0.00     0.001 A 
HETATM   24  C18 UNL     1      35.692  26.955  44.277  1.00  0.00     0.007 A 
ENDBRANCH  18  19
ENDBRANCH   4  18
TORSDOF 6
