REMARK  9 active torsions:
REMARK  status: ('A' for Active; 'I' for Inactive)
REMARK    1  A    between atoms: C1_1  and  C7_7 
REMARK    2  A    between atoms: C7_7  and  C8_8 
REMARK    3  A    between atoms: C8_8  and  C9_9 
REMARK    4  A    between atoms: C9_9  and  N1_10 
REMARK    5  A    between atoms: C9_9  and  C10_11 
REMARK    6  A    between atoms: C10_11  and  O2_13 
REMARK    7  A    between atoms: C12_15  and  N2_17 
REMARK    8  A    between atoms: C17_22  and  C22_27 
REMARK    9  A    between atoms: C22_27  and  O5_29 
ROOT
HETATM    1  N1  UNL     1      31.287  28.067  40.864  1.00  0.00    -0.396 N 
HETATM    2  C11 UNL     1      30.087  28.256  40.040  1.00  0.00     0.166 A 
HETATM    3  C12 UNL     1      29.604  29.717  40.266  1.00  0.00     0.243 A 
HETATM    4  C13 UNL     1      28.917  27.341  40.395  1.00  0.00     0.042 C 
HETATM    5  O3  UNL     1      29.537  30.172  41.414  1.00  0.00    -0.271 OA
HETATM    6  O6  UNL     1      29.740  28.818  40.924  1.00  0.00    -0.411 OA
HETATM    7  H11 UNL     1      31.122  28.422  41.808  1.00  0.00     0.154 HD
HETATM    8  H31 UNL     1      29.727  29.164  40.018  1.00  0.00     0.205 HD
HETATM    9  H32 UNL     1      30.170  27.954  40.837  1.00  0.00     0.205 HD
ENDROOT
BRANCH   1  10
HETATM   10  C9  UNL     1      32.049  26.805  40.852  1.00  0.00     0.176 C 
BRANCH  10  11
HETATM   11  C8  UNL     1      33.563  27.047  41.022  1.00  0.00     0.040 C 
BRANCH  11  12
HETATM   12  C7  UNL     1      34.263  26.084  41.983  1.00  0.00     0.041 C 
BRANCH  12  13
HETATM   13  C1  UNL     1      35.442  26.740  42.660  1.00  0.00    -0.058 A 
HETATM   14  C2  UNL     1      35.421  26.992  44.038  1.00  0.00     0.007 A 
HETATM   15  C3  UNL     1      36.505  27.613  44.660  1.00  0.00     0.001 A 
HETATM   16  C4  UNL     1      37.617  27.992  43.909  1.00  0.00     0.000 A 
HETATM   17  C5  UNL     1      37.644  27.753  42.536  1.00  0.00     0.001 A 
HETATM   18  C6  UNL     1      36.562  27.131  41.913  1.00  0.00     0.007 A 
ENDBRANCH  12  13
ENDBRANCH  11  12
ENDBRANCH  10  11
BRANCH  10  19
HETATM   19  C10 UNL     1      31.487  25.648  41.699  1.00  0.00     0.163 C 
HETATM   20  O1  UNL     1      31.077  25.694  42.850  1.00  0.00    -0.648 OA
BRANCH  19  21
HETATM   21  O2  UNL     1      31.397  24.477  41.033  1.00  0.00    -0.775 OA
HETATM   22  H12 UNL     1      32.231  24.439  40.519  1.00  0.00     0.167 HD
ENDBRANCH  19  21
ENDBRANCH  10  19
ENDBRANCH   1  10
BRANCH   3  23
HETATM   23  N2  UNL     1      29.229  30.464  39.167  1.00  0.00    -0.331 N 
HETATM   24  C14 UNL     1      27.947  30.255  38.511  1.00  0.00     0.092 C 
HETATM   25  C15 UNL     1      27.934  31.295  37.391  1.00  0.00     0.011 C 
HETATM   26  C18 UNL     1      26.677  30.405  39.348  1.00  0.00     0.026 C 
HETATM   27  C16 UNL     1      29.393  31.329  36.952  1.00  0.00     0.043 C 
HETATM   28  C21 UNL     1      26.883  30.945  36.348  1.00  0.00     0.007 C 
HETATM   29  C17 UNL     1      30.125  31.257  38.303  1.00  0.00     0.186 C 
HETATM   30  C20 UNL     1      25.614  30.378  37.011  1.00  0.00     0.001 C 
HETATM   31  C19 UNL     1      25.464  30.794  38.481  1.00  0.00     0.002 C 
BRANCH  29  32
HETATM   32  C22 UNL     1      30.363  32.668  38.851  1.00  0.00     0.163 C 
HETATM   33  O4  UNL     1      29.808  33.204  39.795  1.00  0.00    -0.648 OA
BRANCH  32  34
HETATM   34  O5  UNL     1      31.289  33.340  38.135  1.00  0.00    -0.775 OA
HETATM   35  H30 UNL     1      31.908  32.639  37.839  1.00  0.00     0.167 HD
ENDBRANCH  32  34
ENDBRANCH  29  32
ENDBRANCH   3  23
TORSDOF 9
