REMARK  20 active torsions:
REMARK  status: ('A' for Active; 'I' for Inactive)
REMARK    1  A    between atoms: C2_2  and  C8_15 
REMARK    2  A    between atoms: C3_3  and  C7_12 
REMARK    3  A    between atoms: C4_4  and  O1_7 
REMARK    4  A    between atoms: O1_7  and  P1_8 
REMARK    5  A    between atoms: P1_8  and  O2_9 
REMARK    6  A    between atoms: P1_8  and  O4_11 
REMARK    7  A    between atoms: C7_12  and  O5_13 
REMARK    8  A    between atoms: C8_15  and  C9_16 
REMARK    9  A    between atoms: C9_16  and  C10_17 
REMARK   10  A    between atoms: C10_17  and  C11_18 
REMARK   11  A    between atoms: C11_18  and  C12_19 
REMARK   12  A    between atoms: C12_19  and  C13_20 
REMARK   13  A    between atoms: C13_20  and  C14_21 
REMARK   14  A    between atoms: C14_21  and  C15_22 
REMARK   15  A    between atoms: C15_22  and  C16_23 
REMARK   16  A    between atoms: C16_23  and  C17_24 
REMARK   17  A    between atoms: C17_24  and  C18_25 
REMARK   18  A    between atoms: C18_25  and  C19_26 
REMARK   19  A    between atoms: C19_26  and  C20_27 
REMARK   20  A    between atoms: C20_27  and  C21_28 
ROOT
HETATM    1  C1  UNL     1      31.017  28.434  39.222  1.00  0.00     0.008 A 
HETATM    2  C2  UNL     1      30.388  29.122  38.167  1.00  0.00    -0.038 A 
HETATM    3  C3  UNL     1      29.705  30.320  38.461  1.00  0.00     0.077 A 
HETATM    4  C4  UNL     1      29.638  30.791  39.784  1.00  0.00     0.098 A 
HETATM    5  C5  UNL     1      30.271  30.094  40.813  1.00  0.00     0.038 A 
HETATM    6  C6  UNL     1      30.958  28.916  40.530  1.00  0.00     0.003 A 
ENDROOT
BRANCH   2   7
HETATM    7  C8  UNL     1      30.480  28.533  36.777  1.00  0.00     0.040 C 
BRANCH   7   8
HETATM    8  C9  UNL     1      31.265  27.216  36.769  1.00  0.00     0.005 C 
BRANCH   8   9
HETATM    9  C10 UNL     1      30.382  25.982  36.558  1.00  0.00     0.000 C 
BRANCH   9  10
HETATM   10  C11 UNL     1      30.019  25.272  37.863  1.00  0.00     0.000 C 
BRANCH  10  11
HETATM   11  C12 UNL     1      30.939  24.091  38.187  1.00  0.00     0.000 C 
BRANCH  11  12
HETATM   12  C13 UNL     1      31.387  23.943  39.646  1.00  0.00     0.000 C 
BRANCH  12  13
HETATM   13  C14 UNL     1      31.266  25.212  40.499  1.00  0.00     0.000 C 
BRANCH  13  14
HETATM   14  C15 UNL     1      32.512  25.503  41.342  1.00  0.00     0.000 C 
BRANCH  14  15
HETATM   15  C16 UNL     1      32.186  26.055  42.736  1.00  0.00     0.000 C 
BRANCH  15  16
HETATM   16  C17 UNL     1      32.851  27.389  43.097  1.00  0.00     0.000 C 
BRANCH  16  17
HETATM   17  C18 UNL     1      34.329  27.522  42.710  1.00  0.00     0.000 C 
BRANCH  17  18
HETATM   18  C19 UNL     1      35.302  27.803  43.862  1.00  0.00     0.000 C 
BRANCH  18  19
HETATM   19  C20 UNL     1      36.102  26.597  44.369  1.00  0.00    -0.000 C 
BRANCH  19  20
HETATM   20  C21 UNL     1      35.796  25.274  43.658  1.00  0.00    -0.005 C 
HETATM   21  C22 UNL     1      36.877  24.811  42.698  1.00  0.00     0.005 C 
ENDBRANCH  19  20
ENDBRANCH  18  19
ENDBRANCH  17  18
ENDBRANCH  16  17
ENDBRANCH  15  16
ENDBRANCH  14  15
ENDBRANCH  13  14
ENDBRANCH  12  13
ENDBRANCH  11  12
ENDBRANCH  10  11
ENDBRANCH   9  10
ENDBRANCH   8   9
ENDBRANCH   7   8
ENDBRANCH   2   7
BRANCH   3  22
HETATM   22  C7  UNL     1      28.992  31.100  37.425  1.00  0.00     0.179 C 
HETATM   23  O6  UNL     1      27.977  30.768  36.840  1.00  0.00    -0.646 OA
BRANCH  22  24
HETATM   24  O5  UNL     1      29.566  32.300  37.227  1.00  0.00    -0.773 OA
HETATM   25  H6  UNL     1      29.310  32.821  38.018  1.00  0.00     0.167 HD
ENDBRANCH  22  24
ENDBRANCH   3  22
BRANCH   4  26
HETATM   26  O1  UNL     1      28.984  31.967  40.022  1.00  0.00    -0.254 OA
BRANCH  26  27
HETATM   27  P1  UNL     1      27.569  32.054  40.767  1.00  0.00     0.396 P 
HETATM   28  O3  UNL     1      27.403  31.355  42.073  1.00  0.00    -0.631 OA
BRANCH  27  29
HETATM   29  O2  UNL     1      26.542  31.551  39.648  1.00  0.00    -0.307 OA
HETATM   30  H4  UNL     1      26.919  31.680  38.757  1.00  0.00     0.222 HD
ENDBRANCH  27  29
BRANCH  27  31
HETATM   31  O4  UNL     1      27.219  33.615  40.819  1.00  0.00    -0.307 OA
HETATM   32  H5  UNL     1      27.081  33.900  41.741  1.00  0.00     0.222 HD
ENDBRANCH  27  31
ENDBRANCH  26  27
ENDBRANCH   4  26
TORSDOF 20
