REMARK  4 active torsions:
REMARK  status: ('A' for Active; 'I' for Inactive)
REMARK    1  A    between atoms: N1_2  and  C6_8 
REMARK    2  A    between atoms: C8_10  and  O1_14 
REMARK    3  A    between atoms: C9_11  and  N3_16 
REMARK    4  A    between atoms: N3_16  and  C13_17 
ROOT
HETATM    1  C13 UNL     1      29.206  28.432  39.610  1.00  0.00     0.729 A 
HETATM    2  N4  UNL     1      28.190  29.217  39.962  1.00  0.00    -0.073 NA
HETATM    3  C14 UNL     1      27.814  30.161  39.077  1.00  0.00     0.170 A 
HETATM    4  C15 UNL     1      28.384  30.368  37.830  1.00  0.00     0.102 A 
HETATM    5  C16 UNL     1      29.431  29.496  37.543  1.00  0.00     0.177 A 
HETATM    6  N5  UNL     1      29.838  28.552  38.435  1.00  0.00    -0.042 NA
HETATM    7  N6  UNL     1      27.966  31.460  37.002  1.00  0.00    -0.314 N 
HETATM    8  C17 UNL     1      28.061  31.532  35.607  1.00  0.00     0.260 C 
HETATM    9  C18 UNL     1      28.407  30.355  34.778  1.00  0.00     0.059 A 
HETATM   10  C19 UNL     1      29.441  29.466  35.100  1.00  0.00     0.051 A 
HETATM   11  N7  UNL     1      30.141  29.584  36.317  1.00  0.00    -0.333 N 
HETATM   12  C20 UNL     1      27.702  30.223  33.562  1.00  0.00     0.019 A 
HETATM   13  C21 UNL     1      28.002  29.203  32.666  1.00  0.00     0.001 A 
HETATM   14  C22 UNL     1      29.019  28.312  32.970  1.00  0.00     0.002 A 
HETATM   15  C23 UNL     1      29.728  28.445  34.168  1.00  0.00     0.031 A 
HETATM   16  O2  UNL     1      27.744  32.554  34.989  1.00  0.00    -0.267 OA
HETATM   17  C24 UNL     1      27.346  32.609  37.663  1.00  0.00     0.160 C 
HETATM   18  C25 UNL     1      31.469  28.966  36.390  1.00  0.00     0.158 C 
ENDROOT
BRANCH   1  19
HETATM   19  N3  UNL     1      29.679  27.424  40.437  1.00  0.00    -0.185 N 
HETATM   20  H18 UNL     1      28.969  26.720  40.594  1.00  0.00     0.184 HD
BRANCH  19  21
HETATM   21  C9  UNL     1      30.870  27.199  41.143  1.00  0.00     0.082 A 
HETATM   22  C8  UNL     1      31.710  26.143  40.727  1.00  0.00     0.097 A 
HETATM   23  C7  UNL     1      32.910  25.871  41.406  1.00  0.00     0.068 A 
HETATM   24  C6  UNL     1      33.315  26.631  42.512  1.00  0.00     0.033 A 
HETATM   25  C11 UNL     1      32.473  27.683  42.903  1.00  0.00     0.032 A 
HETATM   26  C10 UNL     1      31.276  27.963  42.235  1.00  0.00     0.035 A 
BRANCH  22  27
HETATM   27  O1  UNL     1      31.243  25.430  39.641  1.00  0.00    -0.354 OA
HETATM   28  C12 UNL     1      31.394  24.017  39.677  1.00  0.00     0.210 C 
ENDBRANCH  22  27
BRANCH  24  29
HETATM   29  N1  UNL     1      34.495  26.394  43.226  1.00  0.00    -0.377 N 
HETATM   30  C1  UNL     1      34.968  27.341  44.255  1.00  0.00     0.153 C 
HETATM   31  C4  UNL     1      36.155  28.173  43.724  1.00  0.00     0.291 C 
HETATM   32  N2  UNL     1      37.345  27.357  43.380  1.00  0.00     0.087 N 
HETATM   33  C3  UNL     1      36.968  25.962  43.060  1.00  0.00     0.291 C 
HETATM   34  C5  UNL     1      38.096  27.979  42.294  1.00  0.00     0.310 C 
HETATM   35  C2  UNL     1      35.576  25.784  42.407  1.00  0.00     0.153 C 
ENDBRANCH  24  29
ENDBRANCH  19  21
ENDBRANCH   1  19
TORSDOF 4
