REMARK  10 active torsions:
REMARK  status: ('A' for Active; 'I' for Inactive)
REMARK    1  A    between atoms: C7_7  and  C9_10 
REMARK    2  A    between atoms: N1_9  and  C16_21 
REMARK       I    between atoms: C9_10  and  N2_11 
REMARK    3  A    between atoms: N2_11  and  C10_12 
REMARK    4  A    between atoms: C10_12  and  C11_13 
REMARK    5  A    between atoms: C10_12  and  C13_18 
REMARK    6  A    between atoms: C11_13  and  O2_15 
REMARK    7  A    between atoms: C16_21  and  C17_22 
REMARK    8  A    between atoms: C17_22  and  C18_23 
REMARK    9  A    between atoms: C18_23  and  C19_24 
REMARK   10  A    between atoms: C19_24  and  C20_25 
ROOT
HETATM    1  C1  UNL     1      30.855  26.485  39.324  1.00  0.00     0.008 A 
HETATM    2  C2  UNL     1      31.363  25.872  40.477  1.00  0.00     0.045 A 
HETATM    3  C3  UNL     1      31.627  24.492  40.536  1.00  0.00     0.030 A 
HETATM    4  C4  UNL     1      31.351  23.716  39.409  1.00  0.00     0.002 A 
HETATM    5  C5  UNL     1      30.815  24.292  38.263  1.00  0.00     0.001 A 
HETATM    6  C6  UNL     1      30.560  25.665  38.210  1.00  0.00     0.015 A 
HETATM    7  C7  UNL     1      30.733  27.890  39.602  1.00  0.00     0.060 A 
HETATM    8  C8  UNL     1      31.106  28.064  40.922  1.00  0.00     0.109 A 
HETATM    9  N1  UNL     1      31.503  26.859  41.430  1.00  0.00    -0.355 N 
ENDROOT
BRANCH   7  10
HETATM   10  C9  UNL     1      30.290  28.987  38.748  1.00  0.00     0.254 C 
HETATM   11  N2  UNL     1      29.194  29.674  39.214  1.00  0.00    -0.343 N 
HETATM   12  H6  UNL     1      28.877  29.474  40.153  1.00  0.00     0.163 HD
HETATM   13  O1  UNL     1      30.828  29.243  37.675  1.00  0.00    -0.268 OA
BRANCH  11  14
HETATM   14  C10 UNL     1      28.775  30.941  38.613  1.00  0.00     0.188 C 
BRANCH  14  15
HETATM   15  C11 UNL     1      29.390  32.047  39.481  1.00  0.00     0.281 C 
HETATM   16  O3  UNL     1      30.038  32.990  39.038  1.00  0.00    -0.263 OA
BRANCH  15  17
HETATM   17  O2  UNL     1      29.143  31.817  40.800  1.00  0.00    -0.325 OA
HETATM   18  C12 UNL     1      28.278  32.778  41.406  1.00  0.00     0.213 C 
ENDBRANCH  15  17
ENDBRANCH  14  15
BRANCH  14  19
HETATM   19  C13 UNL     1      27.236  31.055  38.581  1.00  0.00     0.010 C 
HETATM   20  C14 UNL     1      26.676  30.833  37.172  1.00  0.00     0.012 C 
HETATM   21  C15 UNL     1      26.586  30.047  39.538  1.00  0.00     0.012 C 
ENDBRANCH  14  19
ENDBRANCH  11  14
ENDBRANCH   7  10
BRANCH   9  22
HETATM   22  C16 UNL     1      31.968  26.663  42.796  1.00  0.00     0.128 C 
BRANCH  22  23
HETATM   23  C17 UNL     1      32.852  27.814  43.267  1.00  0.00     0.020 C 
BRANCH  23  24
HETATM   24  C18 UNL     1      34.349  27.487  43.284  1.00  0.00     0.003 C 
BRANCH  24  25
HETATM   25  C19 UNL     1      34.673  25.991  43.201  1.00  0.00     0.015 C 
BRANCH  25  26
HETATM   26  C20 UNL     1      35.945  25.707  42.410  1.00  0.00     0.114 C 
HETATM   27 CL1  UNL     1      35.880  26.516  40.827  1.00  0.00    -0.130 Cl
ENDBRANCH  25  26
ENDBRANCH  24  25
ENDBRANCH  23  24
ENDBRANCH  22  23
ENDBRANCH   9  22
TORSDOF 10
