REMARK  7 active torsions:
REMARK  status: ('A' for Active; 'I' for Inactive)
REMARK    1  A    between atoms: C2_2  and  C8_10 
REMARK    2  A    between atoms: C8_10  and  C9_11 
REMARK    3  A    between atoms: C10_12  and  C13_17 
REMARK    4  A    between atoms: C13_17  and  C14_18 
REMARK    5  A    between atoms: C16_20  and  O7_28 
REMARK    6  A    between atoms: C17_21  and  O6_26 
REMARK    7  A    between atoms: C18_22  and  O5_24 
ROOT
HETATM    1  C9  UNL     1      31.810  25.216  40.831  1.00  0.00     0.028 C 
HETATM    2  C10 UNL     1      31.111  26.071  39.777  1.00  0.00     0.096 C 
HETATM    3  C11 UNL     1      30.999  25.084  38.639  1.00  0.00     0.263 C 
HETATM    4  O3  UNL     1      31.095  23.807  39.116  1.00  0.00    -0.321 OA
HETATM    5  C12 UNL     1      31.243  23.844  40.534  1.00  0.00     0.184 C 
HETATM    6  O4  UNL     1      30.828  25.354  37.462  1.00  0.00    -0.265 OA
ENDROOT
BRANCH   2   7
HETATM    7  C13 UNL     1      31.919  27.314  39.396  1.00  0.00     0.054 C 
BRANCH   7   8
HETATM    8  C14 UNL     1      31.022  28.486  39.060  1.00  0.00    -0.052 A 
HETATM    9  C15 UNL     1      30.627  29.384  40.063  1.00  0.00     0.047 A 
HETATM   10  C16 UNL     1      29.829  30.489  39.759  1.00  0.00     0.104 A 
HETATM   11  C17 UNL     1      29.398  30.669  38.434  1.00  0.00     0.135 A 
HETATM   12  C18 UNL     1      29.797  29.793  37.410  1.00  0.00     0.104 A 
HETATM   13  C19 UNL     1      30.607  28.701  37.735  1.00  0.00     0.047 A 
BRANCH  10  14
HETATM   14  O7  UNL     1      29.405  31.419  40.673  1.00  0.00    -0.353 OA
HETATM   15  C22 UNL     1      28.322  31.046  41.517  1.00  0.00     0.210 C 
ENDBRANCH  10  14
BRANCH  11  16
HETATM   16  O6  UNL     1      28.638  31.773  38.113  1.00  0.00    -0.351 OA
HETATM   17  C21 UNL     1      27.262  31.407  38.048  1.00  0.00     0.210 C 
ENDBRANCH  11  16
BRANCH  12  18
HETATM   18  O5  UNL     1      29.338  30.082  36.151  1.00  0.00    -0.353 OA
HETATM   19  C20 UNL     1      29.721  29.211  35.097  1.00  0.00     0.210 C 
ENDBRANCH  12  18
ENDBRANCH   7   8
ENDBRANCH   2   7
BRANCH   1  20
HETATM   20  C8  UNL     1      31.552  25.693  42.263  1.00  0.00     0.046 C 
BRANCH  20  21
HETATM   21  C2  UNL     1      32.714  26.468  42.835  1.00  0.00    -0.055 A 
HETATM   22  C1  UNL     1      32.527  27.792  43.295  1.00  0.00     0.010 A 
HETATM   23  C6  UNL     1      33.594  28.531  43.815  1.00  0.00     0.040 A 
HETATM   24  C5  UNL     1      34.830  27.926  43.861  1.00  0.00     0.105 A 
HETATM   25  C4  UNL     1      35.022  26.640  43.416  1.00  0.00     0.105 A 
HETATM   26  O2  UNL     1      35.975  28.490  44.329  1.00  0.00    -0.323 OA
HETATM   27  C3  UNL     1      33.989  25.886  42.900  1.00  0.00     0.047 A 
HETATM   28  O1  UNL     1      36.313  26.233  43.549  1.00  0.00    -0.323 OA
HETATM   29  C7  UNL     1      36.910  27.410  44.131  1.00  0.00     0.352 A 
ENDBRANCH  20  21
ENDBRANCH   1  20
TORSDOF 7
