REMARK  5 active torsions:
REMARK  status: ('A' for Active; 'I' for Inactive)
REMARK    1  A    between atoms: C4_4  and  C7_7 
REMARK    2  A    between atoms: C10_10  and  S1_13 
REMARK    3  A    between atoms: S1_13  and  C11_14 
REMARK    4  A    between atoms: C11_14  and  C12_15 
REMARK       I    between atoms: C12_15  and  N3_16 
REMARK    5  A    between atoms: N3_16  and  C13_18 
ROOT
HETATM    1  C7  UNL     1      33.231  26.332  41.769  1.00  0.00     0.089 A 
HETATM    2  C8  UNL     1      32.359  25.249  41.720  1.00  0.00     0.037 A 
HETATM    3  C9  UNL     1      31.452  25.142  40.666  1.00  0.00     0.043 A 
HETATM    4  C10 UNL     1      31.446  26.123  39.693  1.00  0.00     0.116 A 
HETATM    5  N1  UNL     1      32.306  27.156  39.743  1.00  0.00    -0.143 NA
HETATM    6  N2  UNL     1      33.203  27.259  40.783  1.00  0.00    -0.149 NA
ENDROOT
BRANCH   4   7
HETATM    7  S1  UNL     1      30.304  26.100  38.334  1.00  0.00    -0.099 SA
BRANCH   7   8
HETATM    8  C11 UNL     1      31.048  27.399  37.301  1.00  0.00     0.184 C 
BRANCH   8   9
HETATM    9  C12 UNL     1      30.362  28.749  37.459  1.00  0.00     0.233 C 
HETATM   10  N3  UNL     1      30.406  29.234  38.746  1.00  0.00    -0.305 N 
HETATM   11  H10 UNL     1      30.746  28.637  39.489  1.00  0.00     0.171 HD
HETATM   12  O1  UNL     1      29.890  29.304  36.470  1.00  0.00    -0.272 OA
BRANCH  10  13
HETATM   13  C13 UNL     1      29.894  30.417  39.207  1.00  0.00     0.173 A 
HETATM   14  S2  UNL     1      30.236  31.925  38.498  1.00  0.00    -0.062 SA
HETATM   15  C14 UNL     1      29.236  32.689  39.659  1.00  0.00     0.080 A 
HETATM   16  C15 UNL     1      28.711  31.744  40.520  1.00  0.00     0.040 A 
HETATM   17  N4  UNL     1      29.108  30.444  40.259  1.00  0.00    -0.229 NA
HETATM   18  C16 UNL     1      27.802  31.997  41.665  1.00  0.00     0.071 C 
ENDBRANCH  10  13
ENDBRANCH   8   9
ENDBRANCH   7   8
ENDBRANCH   4   7
BRANCH   1  19
HETATM   19  C4  UNL     1      34.225  26.538  42.839  1.00  0.00    -0.006 A 
HETATM   20  C3  UNL     1      34.263  27.747  43.561  1.00  0.00     0.014 A 
HETATM   21  C2  UNL     1      35.202  27.962  44.575  1.00  0.00     0.001 A 
HETATM   22  C1  UNL     1      36.123  26.970  44.894  1.00  0.00     0.000 A 
HETATM   23  C6  UNL     1      36.102  25.762  44.204  1.00  0.00     0.001 A 
HETATM   24  C5  UNL     1      35.162  25.548  43.189  1.00  0.00     0.014 A 
ENDBRANCH   1  19
TORSDOF 5
