REMARK  2 active torsions:
REMARK  status: ('A' for Active; 'I' for Inactive)
REMARK    1  A    between atoms: C11_13  and  S2_15 
REMARK    2  A    between atoms: C15_18  and  C16_19 
ROOT
HETATM    1  C1  UNL     1      30.631  27.405  33.858  1.00  0.00     0.002 A 
HETATM    2  C2  UNL     1      29.812  27.904  32.893  1.00  0.00     0.002 A 
HETATM    3  C3  UNL     1      28.992  28.968  33.256  1.00  0.00     0.021 A 
HETATM    4  C4  UNL     1      28.988  29.497  34.486  1.00  0.00     0.032 A 
HETATM    5  C5  UNL     1      29.823  28.991  35.473  1.00  0.00     0.052 A 
HETATM    6  C6  UNL     1      30.660  27.924  35.152  1.00  0.00     0.031 A 
HETATM    7  S1  UNL     1      27.895  30.833  34.819  1.00  0.00    -0.086 SA
HETATM    8  C7  UNL     1      28.151  31.284  36.531  1.00  0.00     0.032 A 
HETATM    9  C8  UNL     1      29.063  30.592  37.272  1.00  0.00     0.053 A 
HETATM   10  N1  UNL     1      29.868  29.497  36.785  1.00  0.00    -0.345 N 
HETATM   11  C9  UNL     1      27.408  32.336  37.037  1.00  0.00     0.022 A 
HETATM   12  C10 UNL     1      27.551  32.749  38.338  1.00  0.00     0.020 A 
HETATM   13  C11 UNL     1      28.464  32.072  39.113  1.00  0.00     0.002 A 
HETATM   14  C12 UNL     1      29.202  31.018  38.589  1.00  0.00     0.049 A 
HETATM   15  C14 UNL     1      30.748  28.890  37.769  1.00  0.00     0.131 A 
HETATM   16  C15 UNL     1      29.878  28.052  38.688  1.00  0.00     0.056 A 
HETATM   17 CL1  UNL     1      29.642  29.657  38.273  1.00  0.00    -0.145 Cl
HETATM   18  H27 UNL     1      30.229  28.577  38.901  1.00  0.00     0.145 HD
ENDROOT
BRANCH  16  19
HETATM   19  C16 UNL     1      30.776  27.436  39.733  1.00  0.00     0.224 C 
HETATM   20  N2  UNL     1      31.524  28.389  40.489  1.00  0.00     0.088 N 
HETATM   21  C17 UNL     1      32.636  27.727  41.141  1.00  0.00     0.272 C 
HETATM   22  C21 UNL     1      30.737  29.019  41.531  1.00  0.00     0.310 C 
HETATM   23  C18 UNL     1      32.488  26.235  41.157  1.00  0.00     0.030 C 
HETATM   24  C19 UNL     1      31.098  25.767  41.474  1.00  0.00     0.004 C 
HETATM   25  C20 UNL     1      30.045  26.484  40.645  1.00  0.00     0.036 C 
ENDBRANCH  16  19
BRANCH  13  26
HETATM   26  S2  UNL     1      28.690  32.564  40.807  1.00  0.00    -0.134 SA
HETATM   27  C13 UNL     1      27.726  31.500  41.908  1.00  0.00     0.095 C 
ENDBRANCH  13  26
TORSDOF 2
