REMARK  5 active torsions:
REMARK  status: ('A' for Active; 'I' for Inactive)
REMARK    1  A    between atoms: C1_1  and  C13_18 
REMARK       I    between atoms: N1_5  and  C5_8 
REMARK    2  A    between atoms: C4_6  and  C14_19 
REMARK    3  A    between atoms: C5_8  and  O3_9 
REMARK    4  A    between atoms: O3_9  and  C6_11 
REMARK    5  A    between atoms: C6_11  and  C7_12 
ROOT
HETATM    1  C1  UNL     1      29.761  31.590  39.555  1.00  0.00     0.192 C 
HETATM    2  O1  UNL     1      29.285  32.843  40.152  1.00  0.00    -0.307 OA
HETATM    3  C2  UNL     1      28.227  32.886  41.003  1.00  0.00     0.277 C 
HETATM    4  C3  UNL     1      27.745  31.579  41.640  1.00  0.00     0.240 C 
HETATM    5  N1  UNL     1      28.304  30.350  41.077  1.00  0.00    -0.307 N 
HETATM    6  C4  UNL     1      29.707  30.499  40.667  1.00  0.00     0.157 C 
HETATM    7  O2  UNL     1      27.741  33.968  41.327  1.00  0.00    -0.263 OA
HETATM    8  C5  UNL     1      27.479  29.378  40.532  1.00  0.00     0.364 C 
HETATM    9  O4  UNL     1      27.856  28.442  39.842  1.00  0.00    -0.238 OA
ENDROOT
BRANCH   6  10
HETATM   10  C14 UNL     1      30.567  29.245  40.591  1.00  0.00    -0.032 A 
HETATM   11  C15 UNL     1      31.064  28.672  41.778  1.00  0.00     0.009 A 
HETATM   12  C16 UNL     1      31.907  27.559  41.750  1.00  0.00     0.001 A 
HETATM   13  C17 UNL     1      32.289  27.007  40.532  1.00  0.00     0.000 A 
HETATM   14  C18 UNL     1      31.833  27.572  39.346  1.00  0.00     0.001 A 
HETATM   15  C19 UNL     1      30.989  28.687  39.373  1.00  0.00     0.009 A 
ENDBRANCH   6  10
BRANCH   8  16
HETATM   16  O3  UNL     1      26.177  29.558  40.872  1.00  0.00    -0.299 OA
BRANCH  16  17
HETATM   17  C6  UNL     1      25.492  30.531  40.078  1.00  0.00     0.219 C 
BRANCH  17  18
HETATM   18  C7  UNL     1      24.092  30.025  39.848  1.00  0.00    -0.034 A 
HETATM   19  C8  UNL     1      23.388  30.367  38.685  1.00  0.00     0.009 A 
HETATM   20  C9  UNL     1      22.098  29.878  38.470  1.00  0.00     0.001 A 
HETATM   21  C10 UNL     1      21.503  29.040  39.412  1.00  0.00     0.000 A 
HETATM   22  C11 UNL     1      22.198  28.686  40.567  1.00  0.00     0.001 A 
HETATM   23  C12 UNL     1      23.487  29.173  40.783  1.00  0.00     0.009 A 
ENDBRANCH  17  18
ENDBRANCH  16  17
ENDBRANCH   8  16
BRANCH   1  24
HETATM   24  C13 UNL     1      29.051  31.396  38.217  1.00  0.00    -0.026 A 
HETATM   25  C20 UNL     1      29.509  30.502  37.239  1.00  0.00     0.010 A 
HETATM   26  C21 UNL     1      28.856  30.370  36.008  1.00  0.00     0.001 A 
HETATM   27  C22 UNL     1      27.741  31.147  35.719  1.00  0.00     0.000 A 
HETATM   28  C23 UNL     1      27.282  32.064  36.657  1.00  0.00     0.001 A 
HETATM   29  C24 UNL     1      27.936  32.193  37.886  1.00  0.00     0.010 A 
ENDBRANCH   1  24
TORSDOF 5
