REMARK  6 active torsions:
REMARK  status: ('A' for Active; 'I' for Inactive)
REMARK    1  A    between atoms: C4_4  and  C7_7 
REMARK    2  A    between atoms: C7_7  and  N1_8 
REMARK    3  A    between atoms: N2_12  and  C21_27 
REMARK    4  A    between atoms: C12_16  and  C13_17 
REMARK    5  A    between atoms: C16_20  and  O4_25 
REMARK    6  A    between atoms: C21_27  and  C22_28 
ROOT
HETATM    1  N1  UNL     1      30.479  26.053  39.472  1.00  0.00    -0.261 N 
HETATM    2  C8  UNL     1      29.650  27.156  39.555  1.00  0.00     0.267 C 
HETATM    3  C9  UNL     1      30.039  28.144  40.580  1.00  0.00     0.101 C 
HETATM    4  C10 UNL     1      30.916  27.730  41.696  1.00  0.00     0.267 C 
HETATM    5  N2  UNL     1      31.551  26.512  41.529  1.00  0.00    -0.261 N 
HETATM    6  C11 UNL     1      31.392  25.667  40.439  1.00  0.00     0.335 C 
HETATM    7  O1  UNL     1      32.012  24.604  40.351  1.00  0.00    -0.246 OA
HETATM    8  O2  UNL     1      28.648  27.297  38.856  1.00  0.00    -0.267 OA
HETATM    9  C12 UNL     1      29.677  29.443  40.540  1.00  0.00     0.035 C 
HETATM   10  O3  UNL     1      31.056  28.441  42.690  1.00  0.00    -0.267 OA
ENDROOT
BRANCH   9  11
HETATM   11  C13 UNL     1      28.899  30.103  39.478  1.00  0.00    -0.023 A 
HETATM   12  C14 UNL     1      27.501  30.255  39.619  1.00  0.00    -0.049 A 
HETATM   13  C15 UNL     1      26.766  30.863  38.589  1.00  0.00     0.044 A 
HETATM   14  C20 UNL     1      26.769  29.746  40.832  1.00  0.00     0.049 C 
HETATM   15  C16 UNL     1      27.415  31.322  37.449  1.00  0.00     0.066 A 
HETATM   16  C17 UNL     1      28.791  31.192  37.309  1.00  0.00     0.044 A 
HETATM   17  C18 UNL     1      29.552  30.590  38.321  1.00  0.00    -0.049 A 
HETATM   18  C19 UNL     1      31.041  30.463  38.127  1.00  0.00     0.049 C 
BRANCH  15  19
HETATM   19  O4  UNL     1      26.727  31.912  36.430  1.00  0.00    -0.361 OA
HETATM   20  H14 UNL     1      27.364  32.224  35.768  1.00  0.00     0.217 HD
ENDBRANCH  15  19
ENDBRANCH   9  11
BRANCH   1  21
HETATM   21  C7  UNL     1      30.325  25.200  38.298  1.00  0.00     0.175 C 
BRANCH  21  22
HETATM   22  C4  UNL     1      30.540  25.997  37.028  1.00  0.00    -0.040 A 
HETATM   23  C3  UNL     1      31.387  27.115  37.025  1.00  0.00     0.009 A 
HETATM   24  C2  UNL     1      31.626  27.817  35.844  1.00  0.00     0.001 A 
HETATM   25  C1  UNL     1      31.028  27.406  34.653  1.00  0.00     0.000 A 
HETATM   26  C6  UNL     1      30.191  26.292  34.642  1.00  0.00     0.001 A 
HETATM   27  C5  UNL     1      29.947  25.590  35.824  1.00  0.00     0.009 A 
ENDBRANCH  21  22
ENDBRANCH   1  21
BRANCH   5  28
HETATM   28  C21 UNL     1      32.516  26.118  42.552  1.00  0.00     0.175 C 
BRANCH  28  29
HETATM   29  C22 UNL     1      33.889  26.704  42.294  1.00  0.00    -0.040 A 
HETATM   30  C23 UNL     1      34.721  26.166  41.301  1.00  0.00     0.009 A 
HETATM   31  C24 UNL     1      35.994  26.694  41.078  1.00  0.00     0.001 A 
HETATM   32  C25 UNL     1      36.451  27.762  41.847  1.00  0.00     0.000 A 
HETATM   33  C26 UNL     1      35.638  28.300  42.841  1.00  0.00     0.001 A 
HETATM   34  C27 UNL     1      34.365  27.774  43.065  1.00  0.00     0.009 A 
ENDBRANCH  28  29
ENDBRANCH   5  28
TORSDOF 6
