REMARK  10 active torsions:
REMARK  status: ('A' for Active; 'I' for Inactive)
REMARK    1  A    between atoms: C2_2  and  C3_3 
REMARK    2  A    between atoms: C3_3  and  C5_5 
REMARK    3  A    between atoms: C3_3  and  N6_25 
REMARK    4  A    between atoms: C5_5  and  O1_6 
REMARK    5  A    between atoms: C7_9  and  O3_10 
REMARK    6  A    between atoms: C7_9  and  C8_11 
REMARK    7  A    between atoms: O3_10  and  C9_13 
REMARK    8  A    between atoms: C8_11  and  O4_12 
REMARK    9  A    between atoms: C9_13  and  N1_14 
REMARK   10  A    between atoms: C13_20  and  N5_24 
ROOT
HETATM    1  O1  UNL     1      33.637  26.081  40.721  1.00  0.00    -0.317 OA
HETATM    2  C6  UNL     1      32.370  26.724  40.905  1.00  0.00     0.213 A 
HETATM    3  C7  UNL     1      31.333  26.143  39.968  1.00  0.00     0.171 A 
HETATM    4 CL1  UNL     1      32.741  27.370  40.552  1.00  0.00    -0.145 Cl
HETATM    5  H23 UNL     1      31.501  27.967  40.425  1.00  0.00     0.145 HD
ENDROOT
BRANCH   3   6
HETATM    6  O3  UNL     1      30.150  26.789  40.186  1.00  0.00    -0.362 OA
BRANCH   6   7
HETATM    7  C9  UNL     1      29.455  27.130  39.041  1.00  0.00     0.301 C 
BRANCH   7   8
HETATM    8  N1  UNL     1      29.873  28.469  38.658  1.00  0.00    -0.303 N 
HETATM    9  C10 UNL     1      29.576  29.623  39.291  1.00  0.00     0.160 A 
HETATM   10  C11 UNL     1      30.174  30.646  38.587  1.00  0.00     0.173 A 
HETATM   11  N3  UNL     1      28.848  29.909  40.410  1.00  0.00    -0.172 N 
HETATM   12  N2  UNL     1      30.812  30.067  37.551  1.00  0.00    -0.234 NA
HETATM   13  C14 UNL     1      30.013  31.926  39.044  1.00  0.00     0.316 A 
HETATM   14  C12 UNL     1      30.636  28.740  37.583  1.00  0.00     0.214 A 
HETATM   15  N4  UNL     1      29.285  32.156  40.152  1.00  0.00    -0.021 NA
HETATM   16  O5  UNL     1      30.565  32.852  38.390  1.00  0.00    -0.263 OA
HETATM   17  C13 UNL     1      28.690  31.167  40.856  1.00  0.00     0.703 A 
HETATM   18  H18 UNL     1      28.402  29.125  40.930  1.00  0.00     0.186 HD
BRANCH  17  19
HETATM   19  N5  UNL     1      27.930  31.462  42.023  1.00  0.00    -0.233 N 
HETATM   20  H19 UNL     1      28.023  32.344  42.571  1.00  0.00     0.174 HD
HETATM   21  H20 UNL     1      27.238  30.756  42.355  1.00  0.00     0.174 HD
ENDBRANCH  17  19
ENDBRANCH   7   8
ENDBRANCH   6   7
ENDBRANCH   3   6
BRANCH   3  22
HETATM   22  C8  UNL     1      31.272  24.659  40.239  1.00  0.00     0.198 C 
BRANCH  22  23
HETATM   23  O4  UNL     1      31.890  23.929  39.200  1.00  0.00    -0.398 OA
HETATM   24  H14 UNL     1      32.331  23.159  39.665  1.00  0.00     0.209 HD
ENDBRANCH  22  23
ENDBRANCH   3  22
BRANCH   1  25
HETATM   25  C5  UNL     1      34.704  26.494  41.503  1.00  0.00     0.292 C 
HETATM   26  O2  UNL     1      35.726  26.983  40.924  1.00  0.00    -0.263 OA
BRANCH  25  27
HETATM   27  C3  UNL     1      34.744  26.409  42.969  1.00  0.00     0.319 C 
BRANCH  27  28
HETATM   28  C2  UNL     1      35.096  27.721  43.633  1.00  0.00     0.020 C 
HETATM   29  C1  UNL     1      35.903  27.549  44.886  1.00  0.00     0.012 C 
HETATM   30  C4  UNL     1      33.872  28.558  43.904  1.00  0.00     0.012 C 
ENDBRANCH  27  28
BRANCH  27  31
HETATM   31  N6  UNL     1      35.747  25.436  43.341  1.00  0.00     0.092 N 
HETATM   32  H21 UNL     1      36.505  25.939  43.869  1.00  0.00     0.313 HD
HETATM   33  H22 UNL     1      35.293  24.783  44.025  1.00  0.00     0.313 HD
ENDBRANCH  27  31
ENDBRANCH  25  27
ENDBRANCH   1  25
TORSDOF 10
