REMARK  8 active torsions:
REMARK  status: ('A' for Active; 'I' for Inactive)
REMARK    1  A    between atoms: C1_1  and  C7_7 
REMARK    2  A    between atoms: C7_7  and  O1_8 
REMARK    3  A    between atoms: O1_8  and  C8_9 
REMARK    4  A    between atoms: C9_12  and  C10_13 
REMARK    5  A    between atoms: C10_13  and  C11_14 
REMARK    6  A    between atoms: C11_14  and  C14_19 
REMARK    7  A    between atoms: C14_19  and  C15_20 
REMARK    8  A    between atoms: C15_20  and  N2_21 
ROOT
HETATM    1  C8  UNL     1      32.475  27.898  42.881  1.00  0.00     0.361 A 
HETATM    2  N1  UNL     1      31.991  28.723  41.903  1.00  0.00    -0.323 N 
HETATM    3  O2  UNL     1      31.977  26.767  43.105  1.00  0.00    -0.238 OA
HETATM    4  C9  UNL     1      30.817  28.481  41.006  1.00  0.00     0.186 A 
HETATM    5  C12 UNL     1      30.780  26.920  41.217  1.00  0.00     0.281 A 
HETATM    6  O3  UNL     1      31.740  26.242  40.438  1.00  0.00    -0.325 OA
HETATM    7  O4  UNL     1      30.027  26.361  41.980  1.00  0.00    -0.263 OA
HETATM    8  C13 UNL     1      31.895  24.836  40.571  1.00  0.00     0.213 C 
HETATM    9 CL1  UNL     1      31.590  27.741  41.612  1.00  0.00    -0.145 Cl
HETATM   10  H8  UNL     1      32.528  29.645  41.753  1.00  0.00     0.165 HD
HETATM   11  H23 UNL     1      32.487  27.774  42.657  1.00  0.00     0.145 HD
ENDROOT
BRANCH   1  12
HETATM   12  O1  UNL     1      33.581  28.243  43.756  1.00  0.00    -0.299 OA
BRANCH  12  13
HETATM   13  C7  UNL     1      34.800  28.411  42.992  1.00  0.00     0.219 C 
BRANCH  13  14
HETATM   14  C1  UNL     1      35.525  27.154  42.976  1.00  0.00    -0.034 A 
HETATM   15  C2  UNL     1      35.665  26.485  44.193  1.00  0.00     0.009 A 
HETATM   16  C3  UNL     1      36.188  25.231  44.230  1.00  0.00     0.001 A 
HETATM   17  C4  UNL     1      36.586  24.612  43.088  1.00  0.00     0.000 A 
HETATM   18  C5  UNL     1      36.460  25.274  41.862  1.00  0.00     0.001 A 
HETATM   19  C6  UNL     1      35.922  26.558  41.821  1.00  0.00     0.009 A 
ENDBRANCH  13  14
ENDBRANCH  12  13
ENDBRANCH   1  12
BRANCH   4  20
HETATM   20  C10 UNL     1      31.201  28.735  39.631  1.00  0.00     0.035 C 
BRANCH  20  21
HETATM   21  C11 UNL     1      30.468  29.642  38.740  1.00  0.00     0.004 C 
BRANCH  21  22
HETATM   22  C14 UNL     1      29.950  30.959  39.098  1.00  0.00     0.030 C 
BRANCH  22  23
HETATM   23  C15 UNL     1      30.421  32.123  38.275  1.00  0.00     0.267 C 
BRANCH  23  24
HETATM   24  N2  UNL     1      30.262  33.311  39.149  1.00  0.00     0.078 N 
HETATM   25  H21 UNL     1      29.285  33.410  39.479  1.00  0.00     0.312 HD
HETATM   26  H22 UNL     1      30.608  34.114  38.621  1.00  0.00     0.312 HD
ENDBRANCH  23  24
ENDBRANCH  22  23
ENDBRANCH  21  22
ENDBRANCH  20  21
ENDBRANCH   4  20
TORSDOF 8
