REMARK  6 active torsions:
REMARK  status: ('A' for Active; 'I' for Inactive)
REMARK    1  A    between atoms: N1_4  and  C15_23 
REMARK       I    between atoms: N2_6  and  C5_7 
REMARK    2  A    between atoms: C5_7  and  C6_8 
REMARK    3  A    between atoms: C6_8  and  N3_10 
REMARK       I    between atoms: N3_10  and  C7_11 
REMARK    4  A    between atoms: C7_11  and  C8_12 
REMARK    5  A    between atoms: C10_15  and  C14_19 
REMARK    6  A    between atoms: C15_23  and  C16_24 
ROOT
HETATM    1  C1  UNL     1      30.253  29.049  39.526  1.00  0.00     0.103 C 
HETATM    2  C2  UNL     1      30.875  28.659  38.144  1.00  0.00     0.046 C 
HETATM    3  C3  UNL     1      29.907  29.512  37.259  1.00  0.00     0.119 C 
HETATM    4  N1  UNL     1      29.772  30.722  37.982  1.00  0.00    -0.406 N 
HETATM    5  C4  UNL     1      30.202  30.525  39.349  1.00  0.00     0.142 C 
HETATM    6  N2  UNL     1      31.019  28.494  40.598  1.00  0.00    -0.353 N 
HETATM    7  C5  UNL     1      30.741  27.144  40.958  1.00  0.00     0.235 C 
HETATM    8  O1  UNL     1      29.817  26.570  40.259  1.00  0.00    -0.272 OA
HETATM    9 CL2  UNL     1      30.844  29.108  41.792  1.00  0.00    -0.145 Cl
HETATM   10  H8  UNL     1      31.759  28.987  41.150  1.00  0.00     0.163 HD
HETATM   11  H22 UNL     1      30.023  29.357  40.706  1.00  0.00     0.145 HD
ENDROOT
BRANCH   7  12
HETATM   12  C6  UNL     1      31.322  26.313  41.971  1.00  0.00     0.225 C 
BRANCH  12  13
HETATM   13  N3  UNL     1      32.701  25.993  41.971  1.00  0.00    -0.348 N 
HETATM   14  C7  UNL     1      33.702  26.663  42.742  1.00  0.00     0.252 C 
HETATM   15  O2  UNL     1      33.236  27.625  43.449  1.00  0.00    -0.268 OA
HETATM   16  H11 UNL     1      33.056  25.197  41.348  1.00  0.00     0.163 HD
BRANCH  14  17
HETATM   17  C8  UNL     1      35.106  26.330  42.772  1.00  0.00     0.032 A 
HETATM   18  C9  UNL     1      35.988  27.374  42.954  1.00  0.00     0.033 A 
HETATM   19  C10 UNL     1      37.362  27.189  43.017  1.00  0.00     0.048 A 
HETATM   20  C11 UNL     1      37.842  25.903  42.884  1.00  0.00     0.016 A 
HETATM   21  C12 UNL     1      37.019  24.823  42.701  1.00  0.00     0.002 A 
HETATM   22  C13 UNL     1      35.646  25.072  42.648  1.00  0.00     0.017 A 
BRANCH  19  23
HETATM   23  C14 UNL     1      38.314  28.301  43.199  1.00  0.00     0.417 C 
HETATM   24  F1  UNL     1      37.575  29.497  43.061  1.00  0.00    -0.166 F 
HETATM   25  F2  UNL     1      39.343  28.322  42.266  1.00  0.00    -0.166 F 
HETATM   26  F3  UNL     1      38.773  28.317  44.490  1.00  0.00    -0.166 F 
ENDBRANCH  19  23
ENDBRANCH  14  17
ENDBRANCH  12  13
ENDBRANCH   7  12
BRANCH   4  27
HETATM   27  C15 UNL     1      28.771  31.626  37.706  1.00  0.00     0.155 C 
BRANCH  27  28
HETATM   28  C16 UNL     1      27.361  31.243  37.941  1.00  0.00    -0.041 A 
HETATM   29  C17 UNL     1      26.454  31.205  36.875  1.00  0.00     0.010 A 
HETATM   30  C18 UNL     1      25.134  30.853  37.086  1.00  0.00     0.024 A 
HETATM   31  C19 UNL     1      24.663  30.525  38.341  1.00  0.00     0.034 A 
HETATM   32  C20 UNL     1      25.556  30.562  39.385  1.00  0.00     0.024 A 
HETATM   33 CL1  UNL     1      22.991  30.079  38.620  1.00  0.00    -0.084 Cl
HETATM   34  C21 UNL     1      26.888  30.920  39.179  1.00  0.00     0.010 A 
ENDBRANCH  27  28
ENDBRANCH   4  27
TORSDOF 6
