REMARK  5 active torsions:
REMARK  status: ('A' for Active; 'I' for Inactive)
REMARK    1  A    between atoms: C5_5  and  N1_8 
REMARK    2  A    between atoms: N1_8  and  C7_9 
REMARK    3  A    between atoms: C8_11  and  N5_19 
REMARK    4  A    between atoms: C9_13  and  C10_15 
REMARK    5  A    between atoms: C10_15  and  O1_16 
ROOT
HETATM    1  C7  UNL     1      31.551  26.374  40.014  1.00  0.00     0.732 A 
HETATM    2  N2  UNL     1      31.410  25.065  39.820  1.00  0.00    -0.031 NA
HETATM    3  C8  UNL     1      31.024  24.683  38.613  1.00  0.00     0.220 A 
HETATM    4  N3  UNL     1      30.804  25.491  37.600  1.00  0.00    -0.192 NA
HETATM    5  C9  UNL     1      30.973  26.781  37.888  1.00  0.00     0.247 A 
HETATM    6  N4  UNL     1      31.343  27.275  39.071  1.00  0.00    -0.036 NA
ENDROOT
BRANCH   1   7
HETATM    7  N1  UNL     1      31.944  26.741  41.300  1.00  0.00    -0.188 N 
HETATM    8  H3  UNL     1      31.123  26.828  41.883  1.00  0.00     0.184 HD
BRANCH   7   9
HETATM    9  C5  UNL     1      33.178  27.042  41.888  1.00  0.00     0.055 A 
HETATM   10  C4  UNL     1      33.324  27.616  43.155  1.00  0.00     0.073 A 
HETATM   11  C3  UNL     1      34.590  27.897  43.678  1.00  0.00     0.138 A 
HETATM   12  C2  UNL     1      35.744  27.619  42.955  1.00  0.00     0.083 A 
HETATM   13  F1  UNL     1      34.661  28.445  44.900  1.00  0.00    -0.205 F 
HETATM   14  C1  UNL     1      35.610  27.052  41.694  1.00  0.00     0.138 A 
HETATM   15  I1  UNL     1      37.620  28.039  43.739  1.00  0.00    -0.038 I 
HETATM   16  C6  UNL     1      34.349  26.768  41.165  1.00  0.00     0.073 A 
HETATM   17  F2  UNL     1      36.687  26.763  40.949  1.00  0.00    -0.205 F 
ENDBRANCH   7   9
ENDBRANCH   1   7
BRANCH   3  18
HETATM   18  N5  UNL     1      30.865  23.332  38.392  1.00  0.00    -0.270 NA
HETATM   19  H7  UNL     1      30.680  23.129  37.420  1.00  0.00     0.127 HD
HETATM   20  H8  UNL     1      30.255  22.916  39.082  1.00  0.00     0.127 HD
ENDBRANCH   3  18
BRANCH   5  21
HETATM   21  C10 UNL     1      30.730  27.751  36.766  1.00  0.00     0.331 C 
HETATM   22  O2  UNL     1      30.317  28.893  36.907  1.00  0.00    -0.256 OA
BRANCH  21  23
HETATM   23  O1  UNL     1      31.033  27.172  35.570  1.00  0.00    -0.320 OA
HETATM   24  C11 UNL     1      30.466  27.834  34.439  1.00  0.00     0.213 C 
ENDBRANCH  21  23
ENDBRANCH   5  21
TORSDOF 5
