REMARK  7 active torsions:
REMARK  status: ('A' for Active; 'I' for Inactive)
REMARK    1  A    between atoms: C7_7  and  C8_10 
REMARK    2  A    between atoms: N2_9  and  C9_11 
REMARK       I    between atoms: C8_10  and  N3_20 
REMARK    3  A    between atoms: C9_11  and  C10_12 
REMARK    4  A    between atoms: N3_20  and  C16_21 
REMARK    5  A    between atoms: C16_21  and  C17_22 
REMARK    6  A    between atoms: C16_21  and  C20_25 
REMARK    7  A    between atoms: C20_25  and  O2_26 
ROOT
HETATM    1  C1  UNL     1      30.605  25.502  37.953  1.00  0.00     0.016 A 
HETATM    2  C2  UNL     1      31.003  26.406  38.958  1.00  0.00     0.028 A 
HETATM    3  C3  UNL     1      31.519  25.905  40.150  1.00  0.00     0.066 A 
HETATM    4  C4  UNL     1      31.658  24.530  40.391  1.00  0.00     0.032 A 
HETATM    5  C5  UNL     1      31.256  23.652  39.380  1.00  0.00     0.002 A 
HETATM    6  C6  UNL     1      30.736  24.127  38.179  1.00  0.00     0.001 A 
HETATM    7  C7  UNL     1      31.027  27.823  39.104  1.00  0.00     0.157 A 
HETATM    8  N1  UNL     1      31.513  28.187  40.310  1.00  0.00    -0.165 NA
HETATM    9  N2  UNL     1      31.821  27.012  40.906  1.00  0.00    -0.264 N 
ENDROOT
BRANCH   7  10
HETATM   10  C8  UNL     1      30.606  28.833  38.121  1.00  0.00     0.273 C 
HETATM   11  O1  UNL     1      30.946  28.820  36.941  1.00  0.00    -0.266 OA
HETATM   12  N3  UNL     1      29.806  29.818  38.665  1.00  0.00    -0.341 N 
HETATM   13  H11 UNL     1      29.824  29.815  39.684  1.00  0.00     0.163 HD
BRANCH  12  14
HETATM   14  C16 UNL     1      29.573  31.078  37.971  1.00  0.00     0.188 C 
BRANCH  14  15
HETATM   15  C17 UNL     1      28.099  31.259  37.550  1.00  0.00     0.010 C 
HETATM   16  C18 UNL     1      27.936  31.073  36.040  1.00  0.00     0.012 C 
HETATM   17  C19 UNL     1      27.132  30.332  38.295  1.00  0.00     0.012 C 
ENDBRANCH  14  15
BRANCH  14  18
HETATM   18  C20 UNL     1      30.036  32.239  38.865  1.00  0.00     0.281 C 
HETATM   19  O3  UNL     1      30.678  33.209  38.476  1.00  0.00    -0.263 OA
BRANCH  18  20
HETATM   20  O2  UNL     1      29.665  32.017  40.159  1.00  0.00    -0.325 OA
HETATM   21  C21 UNL     1      28.590  32.844  40.605  1.00  0.00     0.213 C 
ENDBRANCH  18  20
ENDBRANCH  14  18
ENDBRANCH  12  14
ENDBRANCH   7  10
BRANCH   9  22
HETATM   22  C9  UNL     1      32.383  27.026  42.252  1.00  0.00     0.190 C 
BRANCH  22  23
HETATM   23  C10 UNL     1      33.821  26.560  42.276  1.00  0.00    -0.038 A 
HETATM   24  C11 UNL     1      34.663  26.772  41.170  1.00  0.00     0.012 A 
HETATM   25  C12 UNL     1      35.993  26.349  41.200  1.00  0.00     0.043 A 
HETATM   26  C13 UNL     1      36.486  25.723  42.336  1.00  0.00     0.116 A 
HETATM   27  C14 UNL     1      35.675  25.510  43.445  1.00  0.00     0.043 A 
HETATM   28  F1  UNL     1      37.764  25.319  42.367  1.00  0.00    -0.206 F 
HETATM   29  C15 UNL     1      34.344  25.930  43.417  1.00  0.00     0.012 A 
ENDBRANCH  22  23
ENDBRANCH   9  22
TORSDOF 7
