REMARK  7 active torsions:
REMARK  status: ('A' for Active; 'I' for Inactive)
REMARK    1  A    between atoms: C2_2  and  C11_12 
REMARK    2  A    between atoms: C13_19  and  N4_21 
REMARK    3  A    between atoms: N4_21  and  C14_22 
REMARK    4  A    between atoms: C16_24  and  C20_29 
REMARK    5  A    between atoms: C20_29  and  C21_30 
REMARK    6  A    between atoms: C21_30  and  C22_31 
REMARK    7  A    between atoms: C22_31  and  N6_32 
ROOT
HETATM    1  C1  UNL     1      36.181  26.732  41.103  1.00  0.00     0.017 A 
HETATM    2  C2  UNL     1      36.433  27.252  42.372  1.00  0.00     0.050 A 
HETATM    3  C3  UNL     1      35.344  27.661  43.155  1.00  0.00     0.046 A 
HETATM    4  C4  UNL     1      34.016  27.532  42.702  1.00  0.00     0.046 A 
HETATM    5  C5  UNL     1      33.755  27.051  41.401  1.00  0.00     0.021 A 
HETATM    6  C6  UNL     1      34.870  26.641  40.631  1.00  0.00     0.017 A 
HETATM    7  N1  UNL     1      33.038  27.959  43.625  1.00  0.00    -0.350 N 
HETATM    8  C7  UNL     1      31.728  27.592  43.717  1.00  0.00     0.082 C 
HETATM    9  C8  UNL     1      31.208  26.451  42.877  1.00  0.00     0.112 C 
HETATM   10  C9  UNL     1      31.245  26.776  41.426  1.00  0.00    -0.003 A 
HETATM   11  C10 UNL     1      32.421  27.041  40.757  1.00  0.00     0.096 A 
HETATM   12  S1  UNL     1      30.758  28.357  44.848  1.00  0.00    -0.065 SA
HETATM   13  C12 UNL     1      30.101  26.820  40.660  1.00  0.00     0.146 A 
HETATM   14  N2  UNL     1      30.089  27.093  39.347  1.00  0.00    -0.074 NA
HETATM   15  C13 UNL     1      31.264  27.342  38.763  1.00  0.00     0.727 A 
HETATM   16  N3  UNL     1      32.428  27.317  39.429  1.00  0.00    -0.061 NA
HETATM   17  H4  UNL     1      33.343  28.574  44.375  1.00  0.00     0.166 HD
ENDROOT
BRANCH  15  18
HETATM   18  N4  UNL     1      31.377  27.640  37.409  1.00  0.00    -0.186 N 
HETATM   19  H8  UNL     1      32.259  27.276  37.082  1.00  0.00     0.184 HD
BRANCH  18  20
HETATM   20  C14 UNL     1      30.605  28.376  36.500  1.00  0.00     0.074 A 
HETATM   21  C15 UNL     1      29.817  29.467  36.879  1.00  0.00     0.040 A 
HETATM   22  C16 UNL     1      29.042  30.170  35.947  1.00  0.00    -0.038 A 
HETATM   23  C17 UNL     1      29.079  29.736  34.633  1.00  0.00     0.124 A 
HETATM   24  N5  UNL     1      29.813  28.688  34.208  1.00  0.00    -0.263 NA
HETATM   25  C18 UNL     1      30.556  28.026  35.134  1.00  0.00     0.057 A 
HETATM   26  C19 UNL     1      31.341  26.862  34.595  1.00  0.00     0.072 C 
BRANCH  22  27
HETATM   27  C20 UNL     1      28.204  31.349  36.360  1.00  0.00     0.042 C 
BRANCH  27  28
HETATM   28  C21 UNL     1      27.116  31.013  37.389  1.00  0.00     0.035 C 
BRANCH  28  29
HETATM   29  C22 UNL     1      27.508  31.421  38.819  1.00  0.00     0.271 C 
BRANCH  29  30
HETATM   30  N6  UNL     1      27.577  30.339  39.810  1.00  0.00     0.080 N 
HETATM   31  C23 UNL     1      26.376  30.238  40.634  1.00  0.00     0.309 C 
HETATM   32  C24 UNL     1      28.778  30.402  40.635  1.00  0.00     0.309 C 
ENDBRANCH  29  30
ENDBRANCH  28  29
ENDBRANCH  27  28
ENDBRANCH  22  27
ENDBRANCH  18  20
ENDBRANCH  15  18
BRANCH   2  33
HETATM   33  C11 UNL     1      37.841  27.397  42.895  1.00  0.00     0.417 C 
HETATM   34  F1  UNL     1      38.531  26.225  42.848  1.00  0.00    -0.166 F 
HETATM   35  F2  UNL     1      37.900  27.817  44.187  1.00  0.00    -0.166 F 
HETATM   36  F3  UNL     1      38.573  28.292  42.177  1.00  0.00    -0.166 F 
ENDBRANCH   2  33
TORSDOF 7
