REMARK  1 active torsions:
REMARK  status: ('A' for Active; 'I' for Inactive)
REMARK    1  A    between atoms: C6_8  and  C8_10 
ROOT
HETATM    1  C1  UNL     1      30.527  26.070  37.005  1.00  0.00     0.302 C 
HETATM    2  N1  UNL     1      31.038  26.988  36.037  1.00  0.00     0.087 N 
HETATM    3  C2  UNL     1      30.621  28.349  36.210  1.00  0.00     0.302 C 
HETATM    4  C3  UNL     1      30.797  28.864  37.596  1.00  0.00     0.304 A 
HETATM    5  N2  UNL     1      30.669  27.792  38.601  1.00  0.00     0.105 N 
HETATM    6  C4  UNL     1      29.768  26.858  38.100  1.00  0.00     0.304 A 
HETATM    7  C5  UNL     1      30.809  26.469  34.728  1.00  0.00     0.310 C 
HETATM    8  C6  UNL     1      30.629  28.305  39.910  1.00  0.00     0.289 A 
HETATM    9  C7  UNL     1      29.440  29.090  40.312  1.00  0.00    -0.021 A 
HETATM   10  C14 UNL     1      28.138  28.700  40.080  1.00  0.00     0.010 A 
HETATM   11  C15 UNL     1      27.037  29.446  40.459  1.00  0.00     0.001 A 
HETATM   12  C16 UNL     1      27.204  30.632  41.097  1.00  0.00     0.000 A 
HETATM   13  C17 UNL     1      28.464  31.071  41.355  1.00  0.00     0.001 A 
HETATM   14  C18 UNL     1      29.540  30.326  40.975  1.00  0.00     0.010 A 
HETATM   15 CL1  UNL     1      30.433  27.776  38.672  1.00  0.00    -0.145 Cl
HETATM   16  H23 UNL     1      30.153  28.070  39.983  1.00  0.00     0.145 HD
ENDROOT
BRANCH   8  17
HETATM   17  C8  UNL     1      31.261  27.532  40.996  1.00  0.00    -0.021 A 
HETATM   18  C9  UNL     1      30.685  26.496  41.685  1.00  0.00     0.010 A 
HETATM   19  C10 UNL     1      31.326  25.805  42.699  1.00  0.00     0.001 A 
HETATM   20  C11 UNL     1      32.611  26.140  43.073  1.00  0.00     0.000 A 
HETATM   21  C12 UNL     1      33.218  27.162  42.415  1.00  0.00     0.001 A 
HETATM   22  C13 UNL     1      32.579  27.829  41.424  1.00  0.00     0.010 A 
ENDBRANCH   8  17
TORSDOF 1
