REMARK  2 active torsions:
REMARK  status: ('A' for Active; 'I' for Inactive)
REMARK    1  A    between atoms: C5_6  and  C19_22 
REMARK    2  A    between atoms: C19_22  and  O2_23 
ROOT
HETATM    1  C1  UNL     1      29.505  29.919  37.237  1.00  0.00     0.148 C 
HETATM    2  O1  UNL     1      28.790  30.763  38.050  1.00  0.00    -0.357 OA
HETATM    3  C2  UNL     1      28.660  30.370  39.431  1.00  0.00     0.130 C 
HETATM    4  C3  UNL     1      29.949  29.712  39.943  1.00  0.00     0.052 C 
HETATM    5  C4  UNL     1      30.317  28.480  39.090  1.00  0.00     0.037 C 
HETATM    6  C5  UNL     1      30.213  28.848  37.631  1.00  0.00     0.043 C 
HETATM    7  C6  UNL     1      29.923  29.351  41.432  1.00  0.00     0.281 C 
HETATM    8  N1  UNL     1      31.252  28.873  41.829  1.00  0.00     0.099 N 
HETATM    9  C7  UNL     1      31.641  27.655  41.071  1.00  0.00     0.273 C 
HETATM   10  C8  UNL     1      31.691  27.969  39.566  1.00  0.00     0.052 C 
HETATM   11  C9  UNL     1      31.349  28.658  43.291  1.00  0.00     0.278 C 
HETATM   12  C10 UNL     1      32.810  28.406  43.751  1.00  0.00     0.072 C 
HETATM   13  C11 UNL     1      33.489  27.450  42.832  1.00  0.00    -0.019 A 
HETATM   14  C12 UNL     1      32.947  27.145  41.600  1.00  0.00     0.050 A 
HETATM   15  C13 UNL     1      34.703  26.728  42.968  1.00  0.00    -0.001 A 
HETATM   16  C14 UNL     1      34.861  25.980  41.798  1.00  0.00     0.043 A 
HETATM   17  N2  UNL     1      33.778  26.247  40.987  1.00  0.00    -0.357 N 
HETATM   18  C15 UNL     1      35.688  26.635  43.970  1.00  0.00     0.014 A 
HETATM   19  C16 UNL     1      36.792  25.797  43.770  1.00  0.00     0.001 A 
HETATM   20  C17 UNL     1      36.924  25.062  42.595  1.00  0.00     0.002 A 
HETATM   21  C18 UNL     1      35.960  25.139  41.585  1.00  0.00     0.030 A 
HETATM   22  C21 UNL     1      27.386  29.542  39.588  1.00  0.00     0.040 C 
HETATM   23  H14 UNL     1      33.633  25.833  40.077  1.00  0.00     0.166 HD
ENDROOT
BRANCH   6  24
HETATM   24  C19 UNL     1      30.831  27.961  36.614  1.00  0.00     0.291 C 
HETATM   25  O3  UNL     1      31.206  26.823  36.858  1.00  0.00    -0.260 OA
BRANCH  24  26
HETATM   26  O2  UNL     1      30.939  28.587  35.416  1.00  0.00    -0.323 OA
HETATM   27  C20 UNL     1      30.409  27.843  34.320  1.00  0.00     0.213 C 
ENDBRANCH  24  26
ENDBRANCH   6  24
TORSDOF 2
