REMARK  9 active torsions:
REMARK  status: ('A' for Active; 'I' for Inactive)
REMARK    1  A    between atoms: C1_2  and  N3_7 
REMARK    2  A    between atoms: C2_4  and  C10_13 
REMARK    3  A    between atoms: C3_5  and  C5_8 
REMARK    4  A    between atoms: C4_6  and  C9_12 
REMARK    5  A    between atoms: C5_8  and  C6_9 
REMARK    6  A    between atoms: C6_9  and  C7_10 
REMARK    7  A    between atoms: C18_21  and  O1_26 
REMARK    8  A    between atoms: O1_26  and  C21_27 
REMARK    9  A    between atoms: C21_27  and  C22_28 
ROOT
HETATM    1  N1  UNL     1      27.331  29.837  39.447  1.00  0.00    -0.217 NA
HETATM    2  C1  UNL     1      26.396  30.489  38.766  1.00  0.00     0.200 A 
HETATM    3  N2  UNL     1      26.573  31.020  37.562  1.00  0.00    -0.217 NA
HETATM    4  C2  UNL     1      27.775  30.842  36.969  1.00  0.00     0.079 A 
HETATM    5  C3  UNL     1      28.812  30.124  37.561  1.00  0.00     0.001 A 
HETATM    6  C4  UNL     1      28.520  29.641  38.836  1.00  0.00     0.082 A 
ENDROOT
BRANCH   6   7
HETATM    7  C9  UNL     1      29.477  28.924  39.682  1.00  0.00     0.035 A 
HETATM    8  C16 UNL     1      30.206  29.601  40.674  1.00  0.00     0.020 A 
HETATM    9  C17 UNL     1      31.109  28.919  41.502  1.00  0.00     0.041 A 
HETATM   10  C18 UNL     1      31.296  27.544  41.356  1.00  0.00     0.110 A 
HETATM   11  C19 UNL     1      30.560  26.866  40.378  1.00  0.00     0.189 A 
HETATM   12  C20 UNL     1      29.663  27.544  39.557  1.00  0.00     0.170 A 
HETATM   13  F1  UNL     1      30.723  25.543  40.216  1.00  0.00    -0.200 F 
HETATM   14  F2  UNL     1      28.991  26.858  38.620  1.00  0.00    -0.202 F 
BRANCH  10  15
HETATM   15  O1  UNL     1      32.149  26.772  42.097  1.00  0.00    -0.344 OA
BRANCH  15  16
HETATM   16  C21 UNL     1      33.480  26.609  41.613  1.00  0.00     0.214 C 
BRANCH  16  17
HETATM   17  C22 UNL     1      34.440  26.707  42.775  1.00  0.00    -0.034 A 
HETATM   18  C23 UNL     1      34.490  27.863  43.569  1.00  0.00     0.009 A 
HETATM   19  C24 UNL     1      35.366  27.939  44.654  1.00  0.00     0.001 A 
HETATM   20  C25 UNL     1      36.196  26.862  44.958  1.00  0.00     0.000 A 
HETATM   21  C26 UNL     1      36.155  25.707  44.177  1.00  0.00     0.001 A 
HETATM   22  C27 UNL     1      35.281  25.629  43.092  1.00  0.00     0.009 A 
ENDBRANCH  16  17
ENDBRANCH  15  16
ENDBRANCH  10  15
ENDBRANCH   6   7
BRANCH   5  23
HETATM   23  C5  UNL     1      30.136  29.872  36.882  1.00  0.00     0.043 C 
BRANCH  23  24
HETATM   24  C6  UNL     1      30.113  28.800  35.784  1.00  0.00     0.004 C 
BRANCH  24  25
HETATM   25  C7  UNL     1      30.982  27.582  36.094  1.00  0.00    -0.004 C 
HETATM   26  C8  UNL     1      30.778  26.476  35.069  1.00  0.00     0.005 C 
ENDBRANCH  24  25
ENDBRANCH  23  24
ENDBRANCH   5  23
BRANCH   2  27
HETATM   27  N3  UNL     1      25.176  30.682  39.376  1.00  0.00    -0.271 NA
HETATM   28  H1  UNL     1      24.471  30.109  38.936  1.00  0.00     0.127 HD
HETATM   29  H2  UNL     1      25.279  30.621  40.378  1.00  0.00     0.127 HD
ENDBRANCH   2  27
BRANCH   4  30
HETATM   30  C10 UNL     1      27.861  31.494  35.652  1.00  0.00    -0.007 A 
HETATM   31  C11 UNL     1      27.873  32.894  35.530  1.00  0.00     0.014 A 
HETATM   32  C12 UNL     1      27.949  33.504  34.275  1.00  0.00     0.001 A 
HETATM   33  C13 UNL     1      28.001  32.722  33.123  1.00  0.00     0.000 A 
HETATM   34  C14 UNL     1      27.967  31.334  33.222  1.00  0.00     0.001 A 
HETATM   35  C15 UNL     1      27.891  30.725  34.477  1.00  0.00     0.014 A 
ENDBRANCH   4  30
TORSDOF 9
