REMARK  4 active torsions:
REMARK  status: ('A' for Active; 'I' for Inactive)
REMARK    1  A    between atoms: C1_2  and  C2_3 
REMARK       I    between atoms: C1_2  and  N3_18 
REMARK    2  A    between atoms: N1_5  and  C10_13 
REMARK    3  A    between atoms: C10_13  and  C11_14 
REMARK    4  A    between atoms: C11_14  and  N2_15 
ROOT
HETATM    1  O1  UNL     1      29.461  26.988  41.079  1.00  0.00    -0.267 OA
HETATM    2  C1  UNL     1      30.477  27.104  40.395  1.00  0.00     0.256 C 
HETATM    3  N3  UNL     1      31.740  26.698  40.860  1.00  0.00    -0.348 N 
HETATM    4  C14 UNL     1      32.919  27.520  40.586  1.00  0.00     0.129 C 
HETATM    5  C15 UNL     1      34.219  26.751  40.770  1.00  0.00     0.063 C 
HETATM    6  C16 UNL     1      34.289  25.975  42.089  1.00  0.00     0.092 C 
HETATM    7  O2  UNL     1      35.391  25.024  41.939  1.00  0.00    -0.371 OA
HETATM    8  C17 UNL     1      36.134  24.922  43.169  1.00  0.00     0.208 C 
HETATM    9  C18 UNL     1      35.781  26.158  43.906  1.00  0.00    -0.025 A 
HETATM   10  C19 UNL     1      36.363  26.667  45.056  1.00  0.00     0.010 A 
HETATM   11  C20 UNL     1      35.843  27.841  45.597  1.00  0.00     0.001 A 
HETATM   12  C21 UNL     1      34.753  28.475  44.988  1.00  0.00     0.001 A 
HETATM   13  C22 UNL     1      34.173  27.945  43.831  1.00  0.00     0.011 A 
HETATM   14  C23 UNL     1      34.699  26.780  43.291  1.00  0.00    -0.015 A 
HETATM   15  C24 UNL     1      33.010  25.160  42.314  1.00  0.00     0.063 C 
HETATM   16  C25 UNL     1      31.751  25.996  42.139  1.00  0.00     0.129 C 
ENDROOT
BRANCH   2  17
HETATM   17  C2  UNL     1      30.403  27.665  39.047  1.00  0.00     0.060 A 
HETATM   18  C3  UNL     1      31.058  27.132  37.952  1.00  0.00     0.109 A 
HETATM   19  N1  UNL     1      30.786  27.908  36.858  1.00  0.00    -0.353 N 
HETATM   20  C4  UNL     1      29.987  28.973  37.218  1.00  0.00     0.047 A 
HETATM   21  C5  UNL     1      29.463  30.032  36.456  1.00  0.00     0.054 A 
HETATM   22  C9  UNL     1      29.748  28.857  38.593  1.00  0.00     0.008 A 
HETATM   23  C6  UNL     1      28.694  30.996  37.115  1.00  0.00     0.036 A 
HETATM   24 CL1  UNL     1      28.035  32.307  36.213  1.00  0.00    -0.084 Cl
HETATM   25  C7  UNL     1      28.457  30.919  38.483  1.00  0.00     0.025 A 
HETATM   26  C8  UNL     1      28.982  29.860  39.231  1.00  0.00     0.016 A 
BRANCH  19  27
HETATM   27  C10 UNL     1      31.307  27.646  35.522  1.00  0.00     0.158 C 
BRANCH  27  28
HETATM   28  C11 UNL     1      30.468  26.594  34.784  1.00  0.00     0.291 C 
BRANCH  28  29
HETATM   29  N2  UNL     1      29.376  27.172  33.974  1.00  0.00     0.081 N 
HETATM   30  C12 UNL     1      29.793  28.397  33.285  1.00  0.00     0.309 C 
HETATM   31  C13 UNL     1      28.912  26.190  32.989  1.00  0.00     0.309 C 
ENDBRANCH  28  29
ENDBRANCH  27  28
ENDBRANCH  19  27
ENDBRANCH   2  17
TORSDOF 4
