REMARK  12 active torsions:
REMARK  status: ('A' for Active; 'I' for Inactive)
REMARK    1  A    between atoms: C1_1  and  C2_2 
REMARK       I    between atoms: C1_1  and  N1_4 
REMARK    2  A    between atoms: N1_4  and  C12_15 
REMARK    3  A    between atoms: N2_6  and  C10_13 
REMARK    4  A    between atoms: C10_13  and  C11_14 
REMARK    5  A    between atoms: C11_14  and  C17_22 
REMARK    6  A    between atoms: C12_15  and  C13_16 
REMARK    7  A    between atoms: C12_15  and  C14_17 
REMARK    8  A    between atoms: C14_17  and  O2_18 
REMARK    9  A    between atoms: O2_18  and  C20_26 
REMARK   10  A    between atoms: C17_22  and  C18_23 
REMARK   11  A    between atoms: C18_23  and  C19_24 
REMARK   12  A    between atoms: C19_24  and  O4_25 
ROOT
HETATM    1  C2  UNL     1      31.982  26.973  41.005  1.00  0.00     0.060 A 
HETATM    2  C3  UNL     1      31.619  28.183  40.438  1.00  0.00     0.109 A 
HETATM    3  N2  UNL     1      30.963  27.943  39.264  1.00  0.00    -0.355 N 
HETATM    4  C4  UNL     1      30.907  26.586  39.019  1.00  0.00     0.045 A 
HETATM    5  C5  UNL     1      31.558  25.952  40.086  1.00  0.00     0.008 A 
HETATM    6  C6  UNL     1      30.353  25.868  37.947  1.00  0.00     0.030 A 
HETATM    7  C7  UNL     1      30.475  24.477  37.947  1.00  0.00     0.002 A 
HETATM    8  C8  UNL     1      31.135  23.821  38.979  1.00  0.00     0.001 A 
HETATM    9  C9  UNL     1      31.683  24.544  40.044  1.00  0.00     0.015 A 
ENDROOT
BRANCH   1  10
HETATM   10  C1  UNL     1      32.677  26.866  42.284  1.00  0.00     0.254 C 
HETATM   11  O1  UNL     1      32.117  27.076  43.353  1.00  0.00    -0.268 OA
HETATM   12  N1  UNL     1      33.982  26.435  42.187  1.00  0.00    -0.343 N 
HETATM   13  H1  UNL     1      34.213  25.948  41.332  1.00  0.00     0.163 HD
BRANCH  12  14
HETATM   14  C12 UNL     1      34.813  26.158  43.358  1.00  0.00     0.188 C 
BRANCH  14  15
HETATM   15  C13 UNL     1      35.688  24.881  43.256  1.00  0.00     0.010 C 
HETATM   16  C15 UNL     1      36.233  24.343  44.579  1.00  0.00     0.012 C 
HETATM   17  C16 UNL     1      36.848  25.089  42.274  1.00  0.00     0.012 C 
ENDBRANCH  14  15
BRANCH  14  18
HETATM   18  C14 UNL     1      35.492  27.440  43.887  1.00  0.00     0.282 C 
HETATM   19  O3  UNL     1      35.392  27.829  45.048  1.00  0.00    -0.263 OA
BRANCH  18  20
HETATM   20  O2  UNL     1      36.276  28.028  42.942  1.00  0.00    -0.320 OA
BRANCH  20  21
HETATM   21  C20 UNL     1      37.498  28.611  43.416  1.00  0.00     0.174 C 
HETATM   22  C21 UNL     1      38.657  28.187  42.534  1.00  0.00     0.034 C 
ENDBRANCH  20  21
ENDBRANCH  18  20
ENDBRANCH  14  18
ENDBRANCH  12  14
ENDBRANCH   1  10
BRANCH   3  23
HETATM   23  C10 UNL     1      30.408  28.985  38.413  1.00  0.00     0.128 C 
BRANCH  23  24
HETATM   24  C11 UNL     1      29.008  29.405  38.861  1.00  0.00     0.020 C 
BRANCH  24  25
HETATM   25  C17 UNL     1      28.596  30.783  38.337  1.00  0.00     0.004 C 
BRANCH  25  26
HETATM   26  C18 UNL     1      29.771  31.594  37.780  1.00  0.00     0.026 C 
BRANCH  26  27
HETATM   27  C19 UNL     1      30.233  32.672  38.756  1.00  0.00     0.164 C 
BRANCH  27  28
HETATM   28  O4  UNL     1      31.281  33.444  38.186  1.00  0.00    -0.401 OA
HETATM   29  H25 UNL     1      32.078  33.300  38.724  1.00  0.00     0.209 HD
ENDBRANCH  27  28
ENDBRANCH  26  27
ENDBRANCH  25  26
ENDBRANCH  24  25
ENDBRANCH  23  24
ENDBRANCH   3  23
TORSDOF 12
