REMARK  8 active torsions:
REMARK  status: ('A' for Active; 'I' for Inactive)
REMARK    1  A    between atoms: C2_2  and  O1_22 
REMARK    2  A    between atoms: C17_17  and  C18_18 
REMARK    3  A    between atoms: C18_18  and  C20_20 
REMARK    4  A    between atoms: C20_20  and  C23_24 
REMARK    5  A    between atoms: C23_24  and  C24_25 
REMARK       I    between atoms: C24_25  and  N1_26 
REMARK    6  A    between atoms: N1_26  and  C25_28 
REMARK    7  A    between atoms: C25_28  and  C26_29 
REMARK    8  A    between atoms: C26_29  and  O4_31 
ROOT
HETATM    1  C1  UNL     1      27.122  33.023  37.065  1.00  0.00     0.032 C 
HETATM    2  C2  UNL     1      27.076  32.387  35.683  1.00  0.00     0.118 C 
HETATM    3  C3  UNL     1      26.990  30.868  35.780  1.00  0.00     0.037 C 
HETATM    4  C4  UNL     1      28.060  30.209  36.671  1.00  0.00    -0.004 C 
HETATM    5  C5  UNL     1      28.279  30.929  38.058  1.00  0.00    -0.036 C 
HETATM    6  C6  UNL     1      28.277  32.476  37.898  1.00  0.00     0.012 C 
HETATM    7  C7  UNL     1      29.396  29.985  35.930  1.00  0.00     0.006 C 
HETATM    8  C8  UNL     1      30.351  29.069  36.723  1.00  0.00     0.006 C 
HETATM    9  C9  UNL     1      30.028  29.068  38.224  1.00  0.00    -0.005 C 
HETATM   10  C10 UNL     1      29.673  30.507  38.653  1.00  0.00    -0.002 C 
HETATM   11  C11 UNL     1      31.131  28.550  39.132  1.00  0.00    -0.002 C 
HETATM   12  C12 UNL     1      30.601  28.327  40.575  1.00  0.00    -0.036 C 
HETATM   13  C13 UNL     1      30.066  29.666  41.138  1.00  0.00     0.010 C 
HETATM   14  C14 UNL     1      29.951  30.831  40.141  1.00  0.00     0.006 C 
HETATM   15  C15 UNL     1      31.824  27.246  38.785  1.00  0.00     0.006 C 
HETATM   16  C16 UNL     1      32.469  26.823  40.112  1.00  0.00     0.006 C 
HETATM   17  C17 UNL     1      31.903  27.759  41.226  1.00  0.00    -0.002 C 
HETATM   18  C21 UNL     1      27.127  30.513  39.003  1.00  0.00     0.016 C 
HETATM   19  C22 UNL     1      29.457  27.279  40.665  1.00  0.00     0.016 C 
ENDROOT
BRANCH  17  20
HETATM   20  C18 UNL     1      31.820  27.036  42.605  1.00  0.00    -0.013 C 
HETATM   21  C19 UNL     1      31.558  28.010  43.760  1.00  0.00     0.010 C 
BRANCH  20  22
HETATM   22  C20 UNL     1      33.119  26.230  42.871  1.00  0.00     0.014 C 
BRANCH  22  23
HETATM   23  C23 UNL     1      34.265  27.071  43.441  1.00  0.00     0.103 C 
BRANCH  23  24
HETATM   24  C24 UNL     1      35.508  27.009  42.570  1.00  0.00     0.218 C 
HETATM   25  N1  UNL     1      36.630  26.615  43.270  1.00  0.00    -0.351 N 
HETATM   26  H40 UNL     1      36.604  26.723  44.276  1.00  0.00     0.163 HD
HETATM   27  O2  UNL     1      35.524  27.286  41.377  1.00  0.00    -0.274 OA
BRANCH  25  28
HETATM   28  C25 UNL     1      37.943  26.678  42.644  1.00  0.00     0.232 C 
BRANCH  28  29
HETATM   29  C26 UNL     1      38.620  27.995  42.982  1.00  0.00     0.158 C 
HETATM   30  O3  UNL     1      38.343  28.737  43.913  1.00  0.00    -0.649 OA
BRANCH  29  31
HETATM   31  O4  UNL     1      39.662  28.271  42.172  1.00  0.00    -0.775 OA
HETATM   32  H43 UNL     1      40.426  28.349  42.781  1.00  0.00     0.167 HD
ENDBRANCH  29  31
ENDBRANCH  28  29
ENDBRANCH  25  28
ENDBRANCH  23  24
ENDBRANCH  22  23
ENDBRANCH  20  22
ENDBRANCH  17  20
BRANCH   2  33
HETATM   33  O1  UNL     1      28.230  32.776  34.945  1.00  0.00    -0.396 OA
HETATM   34  H34 UNL     1      28.934  32.975  35.585  1.00  0.00     0.210 HD
ENDBRANCH   2  33
TORSDOF 8
