REMARK  13 active torsions:
REMARK  status: ('A' for Active; 'I' for Inactive)
REMARK    1  A    between atoms: C7_7  and  C8_8 
REMARK    2  A    between atoms: C8_8  and  C9_9 
REMARK    3  A    between atoms: C9_9  and  C10_10 
REMARK    4  A    between atoms: C10_10  and  C11_11 
REMARK    5  A    between atoms: C11_11  and  C12_12 
REMARK    6  A    between atoms: C12_12  and  C13_13 
REMARK    7  A    between atoms: C13_13  and  C14_14 
REMARK    8  A    between atoms: C14_14  and  C15_15 
REMARK    9  A    between atoms: C15_15  and  C16_16 
REMARK   10  A    between atoms: C16_16  and  C17_17 
REMARK   11  A    between atoms: C17_17  and  C18_18 
REMARK   12  A    between atoms: C18_18  and  C19_19 
REMARK   13  A    between atoms: C26_27  and  O2_28 
ROOT
HETATM    1  C8  UNL     1      30.097  30.827  40.035  1.00  0.00     0.038 C 
ENDROOT
BRANCH   1   2
HETATM    2  C7  UNL     1      28.583  31.201  40.052  1.00  0.00     0.064 C 
HETATM    3  C6  UNL     1      27.885  30.278  41.073  1.00  0.00     0.043 C 
HETATM    4  C5  UNL     1      26.378  30.470  41.068  1.00  0.00     0.044 C 
HETATM    5  C4  UNL     1      25.858  30.543  39.663  1.00  0.00    -0.021 A 
HETATM    6  C3  UNL     1      26.717  30.807  38.587  1.00  0.00     0.082 A 
HETATM    7  C25 UNL     1      24.486  30.377  39.425  1.00  0.00     0.046 A 
HETATM    8  C2  UNL     1      26.217  30.877  37.275  1.00  0.00    -0.025 A 
HETATM    9  O1  UNL     1      28.067  30.986  38.730  1.00  0.00    -0.340 OA
HETATM   10  C1  UNL     1      27.130  31.170  36.118  1.00  0.00     0.051 C 
HETATM   11  C27 UNL     1      24.844  30.705  37.057  1.00  0.00     0.046 A 
HETATM   12  C26 UNL     1      23.994  30.457  38.127  1.00  0.00     0.066 A 
HETATM   13  C24 UNL     1      28.402  32.682  40.431  1.00  0.00     0.046 C 
BRANCH  12  14
HETATM   14  O2  UNL     1      22.666  30.297  37.860  1.00  0.00    -0.361 OA
HETATM   15  H45 UNL     1      22.562  29.557  37.238  1.00  0.00     0.217 HD
ENDBRANCH  12  14
ENDBRANCH   1   2
BRANCH   1  16
HETATM   16  C9  UNL     1      30.495  29.397  40.435  1.00  0.00     0.003 C 
BRANCH  16  17
HETATM   17  C10 UNL     1      31.200  28.531  39.388  1.00  0.00     0.004 C 
BRANCH  17  18
HETATM   18  C11 UNL     1      30.376  27.361  38.805  1.00  0.00    -0.019 C 
HETATM   19  C23 UNL     1      29.067  27.259  39.604  1.00  0.00     0.010 C 
BRANCH  18  20
HETATM   20  C12 UNL     1      31.144  26.021  38.849  1.00  0.00     0.004 C 
BRANCH  20  21
HETATM   21  C13 UNL     1      31.077  25.300  40.204  1.00  0.00     0.001 C 
BRANCH  21  22
HETATM   22  C14 UNL     1      32.328  25.482  41.070  1.00  0.00     0.004 C 
BRANCH  22  23
HETATM   23  C15 UNL     1      32.027  25.938  42.512  1.00  0.00    -0.019 C 
HETATM   24  C22 UNL     1      30.538  25.737  42.814  1.00  0.00     0.010 C 
BRANCH  23  25
HETATM   25  C16 UNL     1      32.466  27.379  42.844  1.00  0.00     0.004 C 
BRANCH  25  26
HETATM   26  C17 UNL     1      33.947  27.687  42.585  1.00  0.00     0.001 C 
BRANCH  26  27
HETATM   27  C18 UNL     1      34.849  26.733  43.376  1.00  0.00     0.004 C 
BRANCH  27  28
HETATM   28  C19 UNL     1      36.070  26.193  42.606  1.00  0.00    -0.023 C 
HETATM   29  C20 UNL     1      36.380  24.739  42.958  1.00  0.00     0.009 C 
HETATM   30  C21 UNL     1      35.927  26.357  41.092  1.00  0.00     0.009 C 
ENDBRANCH  27  28
ENDBRANCH  26  27
ENDBRANCH  25  26
ENDBRANCH  23  25
ENDBRANCH  22  23
ENDBRANCH  21  22
ENDBRANCH  20  21
ENDBRANCH  18  20
ENDBRANCH  17  18
ENDBRANCH  16  17
ENDBRANCH   1  16
TORSDOF 13
