REMARK  9 active torsions:
REMARK  status: ('A' for Active; 'I' for Inactive)
REMARK    1  A    between atoms: C1_1  and  N4_25 
REMARK    2  A    between atoms: N1_7  and  C9_11 
REMARK    3  A    between atoms: C7_8  and  C8_10 
REMARK    4  A    between atoms: C8_10  and  C13_16 
REMARK    5  A    between atoms: C9_11  and  C10_12 
REMARK    6  A    between atoms: C10_12  and  N3_13 
REMARK    7  A    between atoms: N3_13  and  C11_14 
REMARK    8  A    between atoms: C16_19  and  O1_22 
REMARK    9  A    between atoms: O1_22  and  C19_23 
ROOT
HETATM    1  C1  UNL     1      30.857  27.775  36.291  1.00  0.00     0.105 A 
HETATM    2  C2  UNL     1      30.558  29.110  36.606  1.00  0.00     0.038 A 
HETATM    3  C3  UNL     1      30.472  29.528  37.939  1.00  0.00     0.034 A 
HETATM    4  C4  UNL     1      30.695  28.560  38.926  1.00  0.00     0.065 A 
HETATM    5  C5  UNL     1      30.995  27.235  38.627  1.00  0.00     0.088 A 
HETATM    6  C6  UNL     1      31.080  26.817  37.292  1.00  0.00     0.070 A 
HETATM    7  N1  UNL     1      30.693  28.602  40.306  1.00  0.00    -0.331 N 
HETATM    8  C7  UNL     1      30.992  27.338  40.776  1.00  0.00     0.111 A 
HETATM    9  N2  UNL     1      31.175  26.504  39.769  1.00  0.00    -0.233 NA
ENDROOT
BRANCH   8  10
HETATM   10  C8  UNL     1      31.114  26.964  42.224  1.00  0.00     0.117 C 
BRANCH  10  11
HETATM   11  C13 UNL     1      32.523  27.026  42.772  1.00  0.00    -0.051 A 
HETATM   12  C14 UNL     1      33.416  25.961  42.600  1.00  0.00     0.010 A 
HETATM   13  C15 UNL     1      34.718  26.041  43.101  1.00  0.00     0.037 A 
HETATM   14  C16 UNL     1      35.159  27.184  43.771  1.00  0.00     0.068 A 
HETATM   15  C17 UNL     1      34.285  28.258  43.924  1.00  0.00     0.037 A 
HETATM   16  C18 UNL     1      32.978  28.181  43.424  1.00  0.00     0.010 A 
BRANCH  14  17
HETATM   17  O1  UNL     1      36.453  27.121  44.204  1.00  0.00    -0.352 OA
BRANCH  17  18
HETATM   18  C19 UNL     1      37.352  28.172  43.855  1.00  0.00     0.171 C 
HETATM   19  C20 UNL     1      38.280  27.741  42.733  1.00  0.00     0.034 C 
ENDBRANCH  17  18
ENDBRANCH  14  17
ENDBRANCH  10  11
ENDBRANCH   8  10
BRANCH   7  20
HETATM   20  C9  UNL     1      30.407  29.782  41.105  1.00  0.00     0.160 C 
BRANCH  20  21
HETATM   21  C10 UNL     1      28.910  30.111  41.130  1.00  0.00     0.289 C 
BRANCH  21  22
HETATM   22  N3  UNL     1      28.570  31.445  40.625  1.00  0.00     0.084 N 
HETATM   23  H10 UNL     1      28.859  31.550  39.653  1.00  0.00     0.315 HD
BRANCH  22  24
HETATM   24  C11 UNL     1      27.153  31.771  40.767  1.00  0.00     0.265 C 
HETATM   25  C12 UNL     1      26.328  30.494  40.717  1.00  0.00     0.037 C 
ENDBRANCH  22  24
ENDBRANCH  21  22
ENDBRANCH  20  21
ENDBRANCH   7  20
BRANCH   1  26
HETATM   26  N4  UNL     1      30.938  27.368  34.883  1.00  0.00    -0.116 N 
HETATM   27  O2  UNL     1      31.453  26.270  34.629  1.00  0.00    -0.532 OA
HETATM   28  O3  UNL     1      30.487  28.145  34.028  1.00  0.00    -0.532 OA
ENDBRANCH   1  26
TORSDOF 9
