REMARK  2 active torsions:
REMARK  status: ('A' for Active; 'I' for Inactive)
REMARK    1  A    between atoms: C2_4  and  C3_5 
REMARK    2  A    between atoms: C12_17  and  C14_19 
ROOT
HETATM    1  O1  UNL     1      31.307  24.270  40.065  1.00  0.00    -0.265 OA
HETATM    2  C1  UNL     1      31.687  25.353  40.498  1.00  0.00     0.288 A 
HETATM    3  N1  UNL     1      32.623  25.448  41.515  1.00  0.00    -0.193 NA
HETATM    4  C2  UNL     1      32.986  26.613  41.969  1.00  0.00     0.142 A 
HETATM    5  N3  UNL     1      32.539  27.846  41.515  1.00  0.00    -0.341 N 
HETATM    6  C10 UNL     1      31.647  27.833  40.510  1.00  0.00     0.057 A 
HETATM    7  C11 UNL     1      31.223  26.633  40.013  1.00  0.00     0.102 A 
HETATM    8  S1  UNL     1      30.093  26.826  38.766  1.00  0.00    -0.082 SA
HETATM    9  C12 UNL     1      30.248  28.539  38.811  1.00  0.00     0.021 A 
HETATM   10  C13 UNL     1      31.092  28.947  39.831  1.00  0.00     0.051 A 
HETATM   11  H13 UNL     1      32.731  28.648  42.113  1.00  0.00     0.167 HD
ENDROOT
BRANCH   4  12
HETATM   12  C3  UNL     1      34.014  26.687  43.132  1.00  0.00     0.292 C 
HETATM   13  N2  UNL     1      35.209  25.856  42.739  1.00  0.00     0.100 N 
HETATM   14  C4  UNL     1      36.024  26.642  41.769  1.00  0.00     0.273 C 
HETATM   15  C9  UNL     1      36.034  25.632  43.954  1.00  0.00     0.273 C 
HETATM   16  C5  UNL     1      36.628  27.900  42.418  1.00  0.00     0.035 C 
HETATM   17  C6  UNL     1      35.959  28.136  43.781  1.00  0.00    -0.009 C 
HETATM   18  C7  UNL     1      34.435  28.106  43.574  1.00  0.00     0.048 C 
HETATM   19  C8  UNL     1      36.335  26.952  44.689  1.00  0.00     0.035 C 
ENDBRANCH   4  12
BRANCH   9  20
HETATM   20  C14 UNL     1      29.569  29.513  37.785  1.00  0.00     0.024 A 
HETATM   21  C15 UNL     1      28.389  30.296  37.904  1.00  0.00     0.063 A 
HETATM   22  C16 UNL     1      27.473  30.471  39.063  1.00  0.00     0.073 C 
HETATM   23  N4  UNL     1      28.088  30.902  36.740  1.00  0.00    -0.179 NA
HETATM   24  N5  UNL     1      29.087  30.554  35.916  1.00  0.00    -0.288 N 
HETATM   25  C17 UNL     1      30.012  29.737  36.497  1.00  0.00     0.124 A 
HETATM   26  H18 UNL     1      29.055  30.888  34.956  1.00  0.00     0.188 HD
ENDBRANCH   9  20
TORSDOF 2
