REMARK  6 active torsions:
REMARK  status: ('A' for Active; 'I' for Inactive)
REMARK    1  A    between atoms: C2_2  and  C5_6 
REMARK    2  A    between atoms: N1_4  and  C21_22 
REMARK    3  A    between atoms: C5_6  and  C6_7 
REMARK    4  A    between atoms: C21_22  and  C22_23 
REMARK    5  A    between atoms: C22_23  and  C23_24 
REMARK    6  A    between atoms: C23_24  and  C24_25 
ROOT
HETATM    1  C1  UNL     1      31.207  26.613  39.356  1.00  0.00    -0.001 A 
HETATM    2  C2  UNL     1      31.341  27.989  39.743  1.00  0.00    -0.026 A 
HETATM    3  C3  UNL     1      31.895  27.983  41.011  1.00  0.00     0.099 A 
HETATM    4  N1  UNL     1      32.055  26.684  41.416  1.00  0.00    -0.356 N 
HETATM    5  C4  UNL     1      31.653  25.822  40.420  1.00  0.00     0.045 A 
HETATM    6  C17 UNL     1      31.646  24.419  40.359  1.00  0.00     0.030 A 
HETATM    7  C18 UNL     1      31.179  23.809  39.191  1.00  0.00     0.002 A 
HETATM    8  C19 UNL     1      30.734  24.571  38.118  1.00  0.00     0.001 A 
HETATM    9  C20 UNL     1      30.744  25.969  38.187  1.00  0.00     0.014 A 
ENDROOT
BRANCH   2  10
HETATM   10  C5  UNL     1      30.989  29.180  38.904  1.00  0.00     0.080 C 
BRANCH  10  11
HETATM   11  C6  UNL     1      29.527  29.515  39.142  1.00  0.00    -0.043 A 
HETATM   12  C7  UNL     1      29.025  29.311  40.439  1.00  0.00     0.009 A 
HETATM   13  C8  UNL     1      27.704  29.604  40.750  1.00  0.00     0.008 A 
HETATM   14  C9  UNL     1      26.840  30.116  39.775  1.00  0.00    -0.051 A 
HETATM   15  C10 UNL     1      27.314  30.337  38.454  1.00  0.00    -0.019 A 
HETATM   16  C16 UNL     1      25.417  30.415  40.175  1.00  0.00     0.049 C 
HETATM   17  C11 UNL     1      28.668  30.035  38.131  1.00  0.00    -0.019 A 
HETATM   18  C12 UNL     1      26.477  30.854  37.437  1.00  0.00     0.013 A 
HETATM   19  C15 UNL     1      29.100  30.268  36.803  1.00  0.00     0.013 A 
HETATM   20  C14 UNL     1      28.250  30.776  35.822  1.00  0.00     0.001 A 
HETATM   21  C13 UNL     1      26.936  31.071  36.138  1.00  0.00     0.001 A 
ENDBRANCH  10  11
ENDBRANCH   2  10
BRANCH   4  22
HETATM   22  C21 UNL     1      32.569  26.297  42.722  1.00  0.00     0.128 C 
BRANCH  22  23
HETATM   23  C22 UNL     1      33.971  26.851  42.973  1.00  0.00     0.020 C 
BRANCH  23  24
HETATM   24  C23 UNL     1      35.005  25.759  43.271  1.00  0.00     0.001 C 
BRANCH  24  25
HETATM   25  C24 UNL     1      36.114  25.619  42.226  1.00  0.00    -0.004 C 
HETATM   26  C25 UNL     1      35.892  26.427  40.959  1.00  0.00     0.005 C 
ENDBRANCH  24  25
ENDBRANCH  23  24
ENDBRANCH  22  23
ENDBRANCH   4  22
TORSDOF 6
