REMARK  13 active torsions:
REMARK  status: ('A' for Active; 'I' for Inactive)
REMARK    1  A    between atoms: C1_1  and  C13_15 
REMARK    2  A    between atoms: C2_2  and  C3_3 
REMARK    3  A    between atoms: C2_2  and  C12_12 
REMARK    4  A    between atoms: C3_3  and  C4_4 
REMARK    5  A    between atoms: C4_4  and  C5_5 
REMARK    6  A    between atoms: C5_5  and  C6_6 
REMARK    7  A    between atoms: C6_6  and  C7_7 
REMARK    8  A    between atoms: C7_7  and  C8_8 
REMARK    9  A    between atoms: C8_8  and  C9_9 
REMARK   10  A    between atoms: C9_9  and  C10_10 
REMARK   11  A    between atoms: C12_12  and  O1_13 
REMARK   12  A    between atoms: C15_18  and  O4_19 
REMARK   13  A    between atoms: C17_21  and  O5_22 
ROOT
HETATM    1  C1  UNL     1      30.531  27.274  40.507  1.00  0.00     0.030 C 
HETATM    2  C2  UNL     1      31.720  26.768  40.900  1.00  0.00     0.016 C 
ENDROOT
BRANCH   1   3
HETATM    3  C13 UNL     1      30.326  28.460  39.685  1.00  0.00     0.028 A 
HETATM    4  C14 UNL     1      30.120  29.750  40.415  1.00  0.00     0.218 A 
HETATM    5  O3  UNL     1      30.166  29.776  41.643  1.00  0.00    -0.284 OA
HETATM    6  C15 UNL     1      29.866  30.984  39.616  1.00  0.00     0.157 A 
HETATM    7  C17 UNL     1      29.862  30.944  38.277  1.00  0.00     0.156 A 
HETATM    8  C19 UNL     1      30.109  29.669  37.550  1.00  0.00     0.214 A 
HETATM    9  O6  UNL     1      30.119  29.620  36.322  1.00  0.00    -0.285 OA
HETATM   10  C20 UNL     1      30.341  28.428  38.342  1.00  0.00     0.005 A 
HETATM   11  C21 UNL     1      30.601  27.207  37.496  1.00  0.00     0.054 C 
BRANCH   6  12
HETATM   12  O4  UNL     1      29.586  32.191  40.254  1.00  0.00    -0.350 OA
HETATM   13  C16 UNL     1      28.262  32.290  40.774  1.00  0.00     0.210 C 
ENDBRANCH   6  12
BRANCH   7  14
HETATM   14  O5  UNL     1      29.567  32.107  37.568  1.00  0.00    -0.350 OA
HETATM   15  C18 UNL     1      28.220  32.176  37.107  1.00  0.00     0.210 C 
ENDBRANCH   7  14
ENDBRANCH   1   3
BRANCH   2  16
HETATM   16  C3  UNL     1      33.067  27.361  40.573  1.00  0.00     0.045 C 
BRANCH  16  17
HETATM   17  C4  UNL     1      34.142  27.079  41.632  1.00  0.00     0.005 C 
BRANCH  17  18
HETATM   18  C5  UNL     1      35.383  26.378  41.078  1.00  0.00     0.000 C 
BRANCH  18  19
HETATM   19  C6  UNL     1      36.098  25.576  42.167  1.00  0.00     0.000 C 
BRANCH  19  20
HETATM   20  C7  UNL     1      35.423  25.757  43.528  1.00  0.00     0.000 C 
BRANCH  20  21
HETATM   21  C8  UNL     1      36.326  26.412  44.577  1.00  0.00     0.000 C 
BRANCH  21  22
HETATM   22  C9  UNL     1      36.583  27.901  44.323  1.00  0.00    -0.000 C 
BRANCH  22  23
HETATM   23  C10 UNL     1      38.078  28.178  44.160  1.00  0.00    -0.005 C 
HETATM   24  C11 UNL     1      38.479  28.228  42.696  1.00  0.00     0.005 C 
ENDBRANCH  22  23
ENDBRANCH  21  22
ENDBRANCH  20  21
ENDBRANCH  19  20
ENDBRANCH  18  19
ENDBRANCH  17  18
ENDBRANCH  16  17
ENDBRANCH   2  16
BRANCH   2  25
HETATM   25  C12 UNL     1      31.638  25.531  41.715  1.00  0.00     0.172 C 
HETATM   26  O2  UNL     1      31.468  25.469  42.920  1.00  0.00    -0.646 OA
BRANCH  25  27
HETATM   27  O1  UNL     1      31.778  24.412  40.988  1.00  0.00    -0.773 OA
HETATM   28  H21 UNL     1      32.150  23.772  41.626  1.00  0.00     0.167 HD
ENDBRANCH  25  27
ENDBRANCH   2  25
TORSDOF 13
