REMARK  15 active torsions:
REMARK  status: ('A' for Active; 'I' for Inactive)
REMARK    1  A    between atoms: C1_1  and  C2_2 
REMARK    2  A    between atoms: C1_1  and  C5_5 
REMARK    3  A    between atoms: C3_3  and  C8_8 
REMARK    4  A    between atoms: C4_4  and  C6_6 
REMARK    5  A    between atoms: C6_6  and  C7_7 
REMARK    6  A    between atoms: C8_8  and  C9_9 
REMARK    7  A    between atoms: C10_10  and  C12_12 
REMARK    8  A    between atoms: C11_11  and  C16_16 
REMARK    9  A    between atoms: C12_12  and  C13_13 
REMARK   10  A    between atoms: C13_13  and  C14_14 
REMARK   11  A    between atoms: C14_14  and  C15_15 
REMARK   12  A    between atoms: C15_15  and  O3_23 
REMARK   13  A    between atoms: C17_17  and  C18_18 
REMARK   14  A    between atoms: C18_18  and  C19_19 
REMARK   15  A    between atoms: C18_18  and  O1_21 
ROOT
HETATM    1  C1  UNL     1      32.079  24.882  40.698  1.00  0.00     0.053 C 
ENDROOT
BRANCH   1   2
HETATM    2  C2  UNL     1      31.151  24.940  41.879  1.00  0.00    -0.027 C 
HETATM    3  C3  UNL     1      30.741  26.033  42.546  1.00  0.00    -0.027 C 
BRANCH   3   4
HETATM    4  C8  UNL     1      31.058  27.470  42.248  1.00  0.00     0.054 C 
BRANCH   4   5
HETATM    5  C9  UNL     1      31.856  28.094  43.356  1.00  0.00    -0.023 C 
HETATM    6  C11 UNL     1      33.190  28.156  43.493  1.00  0.00    -0.004 C 
BRANCH   6   7
HETATM    7  C16 UNL     1      34.169  27.667  42.550  1.00  0.00    -0.002 C 
HETATM    8  C17 UNL     1      34.762  26.468  42.679  1.00  0.00     0.004 C 
BRANCH   8   9
HETATM    9  C18 UNL     1      35.794  25.938  41.727  1.00  0.00     0.140 C 
BRANCH   9  10
HETATM   10  C19 UNL     1      37.199  26.014  42.330  1.00  0.00     0.031 C 
HETATM   11  C20 UNL     1      37.453  27.348  43.020  1.00  0.00     0.008 C 
ENDBRANCH   9  10
BRANCH   9  12
HETATM   12  O1  UNL     1      35.740  26.740  40.551  1.00  0.00    -0.392 OA
HETATM   13  H29 UNL     1      35.443  26.160  39.829  1.00  0.00     0.210 HD
ENDBRANCH   9  12
ENDBRANCH   8   9
ENDBRANCH   6   7
ENDBRANCH   4   5
ENDBRANCH   3   4
ENDBRANCH   1   2
BRANCH   1  14
HETATM   14  C5  UNL     1      31.493  24.057  39.589  1.00  0.00    -0.027 C 
HETATM   15  C4  UNL     1      30.893  24.504  38.472  1.00  0.00    -0.027 C 
BRANCH  15  16
HETATM   16  C6  UNL     1      30.716  25.932  38.046  1.00  0.00     0.053 C 
BRANCH  16  17
HETATM   17  C7  UNL     1      29.522  26.551  38.716  1.00  0.00    -0.027 C 
HETATM   18  C10 UNL     1      29.360  27.837  39.067  1.00  0.00    -0.030 C 
BRANCH  18  19
HETATM   19  C12 UNL     1      30.314  28.969  38.812  1.00  0.00     0.027 C 
BRANCH  19  20
HETATM   20  C13 UNL     1      29.577  30.239  38.391  1.00  0.00     0.014 C 
BRANCH  20  21
HETATM   21  C14 UNL     1      30.551  31.294  37.874  1.00  0.00     0.110 C 
BRANCH  21  22
HETATM   22  C15 UNL     1      30.454  32.571  38.662  1.00  0.00     0.139 C 
HETATM   23  O2  UNL     1      29.765  32.792  39.641  1.00  0.00    -0.650 OA
BRANCH  22  24
HETATM   24  O3  UNL     1      31.254  33.531  38.160  1.00  0.00    -0.776 OA
HETATM   25  H30 UNL     1      32.155  33.152  38.250  1.00  0.00     0.167 HD
ENDBRANCH  22  24
ENDBRANCH  21  22
ENDBRANCH  20  21
ENDBRANCH  19  20
ENDBRANCH  18  19
ENDBRANCH  16  17
ENDBRANCH  15  16
ENDBRANCH   1  14
TORSDOF 15
