REMARK  6 active torsions:
REMARK  status: ('A' for Active; 'I' for Inactive)
REMARK       I    between atoms: C1_2  and  N1_3 
REMARK    1  A    between atoms: C1_2  and  C2_5 
REMARK    2  A    between atoms: N1_3  and  N2_4 
REMARK    3  A    between atoms: C2_5  and  S1_6 
REMARK    4  A    between atoms: S1_6  and  C3_7 
REMARK    5  A    between atoms: C6_12  and  C7_13 
REMARK    6  A    between atoms: N4_22  and  C15_23 
ROOT
HETATM    1  C3  UNL     1      30.796  28.356  40.953  1.00  0.00     0.177 A 
HETATM    2  N3  UNL     1      31.141  28.947  42.055  1.00  0.00    -0.216 NA
HETATM    3  C4  UNL     1      32.266  28.478  42.634  1.00  0.00     0.117 A 
HETATM    4  S2  UNL     1      32.855  29.166  44.077  1.00  0.00    -0.080 SA
HETATM    5  C5  UNL     1      34.156  28.062  44.140  1.00  0.00     0.065 A 
HETATM    6  C6  UNL     1      34.148  27.176  43.079  1.00  0.00    -0.001 A 
HETATM    7  C13 UNL     1      33.041  27.431  42.198  1.00  0.00     0.080 A 
HETATM    8  C14 UNL     1      32.646  26.762  40.966  1.00  0.00     0.268 A 
HETATM    9  O2  UNL     1      33.303  25.824  40.523  1.00  0.00    -0.267 OA
HETATM   10  N4  UNL     1      31.505  27.311  40.337  1.00  0.00    -0.256 N 
ENDROOT
BRANCH   1  11
HETATM   11  S1  UNL     1      29.243  28.861  40.284  1.00  0.00    -0.082 SA
BRANCH  11  12
HETATM   12  C2  UNL     1      29.405  30.660  40.468  1.00  0.00     0.186 C 
BRANCH  12  13
HETATM   13  C1  UNL     1      30.093  31.233  39.247  1.00  0.00     0.241 C 
HETATM   14  O1  UNL     1      30.340  30.564  38.243  1.00  0.00    -0.271 OA
HETATM   15  N1  UNL     1      30.435  32.577  39.366  1.00  0.00    -0.293 N 
HETATM   16  H1  UNL     1      29.973  33.138  40.082  1.00  0.00     0.183 HD
BRANCH  15  17
HETATM   17  N2  UNL     1      30.980  33.248  38.247  1.00  0.00    -0.247 NA
HETATM   18  H2  UNL     1      30.300  33.959  37.956  1.00  0.00     0.143 HD
HETATM   19  H3  UNL     1      31.773  33.809  38.588  1.00  0.00     0.143 HD
ENDBRANCH  15  17
ENDBRANCH  12  13
ENDBRANCH  11  12
ENDBRANCH   1  11
BRANCH  10  20
HETATM   20  C15 UNL     1      31.160  26.788  39.045  1.00  0.00     0.044 A 
HETATM   21  C16 UNL     1      31.433  27.523  37.882  1.00  0.00     0.030 A 
HETATM   22  C17 UNL     1      31.085  27.026  36.623  1.00  0.00     0.002 A 
HETATM   23  C18 UNL     1      30.448  25.792  36.512  1.00  0.00     0.000 A 
HETATM   24  C19 UNL     1      30.149  25.060  37.659  1.00  0.00     0.002 A 
HETATM   25  C20 UNL     1      30.497  25.558  38.918  1.00  0.00     0.030 A 
ENDBRANCH  10  20
BRANCH   6  26
HETATM   26  C7  UNL     1      35.195  26.168  42.967  1.00  0.00    -0.024 A 
HETATM   27  C8  UNL     1      36.233  26.326  42.042  1.00  0.00     0.012 A 
HETATM   28  C9  UNL     1      37.243  25.367  41.949  1.00  0.00     0.001 A 
HETATM   29  C10 UNL     1      37.225  24.249  42.783  1.00  0.00     0.000 A 
HETATM   30  C11 UNL     1      36.195  24.085  43.707  1.00  0.00     0.001 A 
HETATM   31  C12 UNL     1      35.182  25.042  43.801  1.00  0.00     0.012 A 
ENDBRANCH   6  26
TORSDOF 6
