REMARK  10 active torsions:
REMARK  status: ('A' for Active; 'I' for Inactive)
REMARK    1  A    between atoms: O1_4  and  C2_5 
REMARK    2  A    between atoms: C2_5  and  C5_8 
REMARK    3  A    between atoms: C4_7  and  C5_8 
REMARK    4  A    between atoms: C5_8  and  N3_9 
REMARK    5  A    between atoms: N3_9  and  C6_10 
REMARK    6  A    between atoms: O2_16  and  C11_17 
REMARK    7  A    between atoms: C12_18  and  C13_19 
REMARK    8  A    between atoms: C13_19  and  N5_20 
REMARK    9  A    between atoms: N5_20  and  C14_21 
REMARK   10  A    between atoms: N6_24  and  C19_27 
ROOT
HETATM    1  C1  UNL     1      28.536  31.096  40.374  1.00  0.00     0.212 A 
HETATM    2  N1  UNL     1      29.459  30.602  41.171  1.00  0.00    -0.236 NA
HETATM    3  N2  UNL     1      30.009  28.844  38.114  1.00  0.00    -0.198 NA
HETATM    4  C6  UNL     1      31.044  28.060  38.449  1.00  0.00     0.205 A 
HETATM    5  N4  UNL     1      31.651  28.021  39.652  1.00  0.00    -0.204 NA
HETATM    6  C14 UNL     1      31.211  28.805  40.670  1.00  0.00     0.139 A 
HETATM    7  C15 UNL     1      30.129  29.666  40.409  1.00  0.00     0.144 A 
HETATM    8  C16 UNL     1      29.601  29.616  39.129  1.00  0.00     0.167 A 
HETATM    9  N6  UNL     1      28.579  30.528  39.128  1.00  0.00    -0.320 N 
ENDROOT
BRANCH   6  10
HETATM   10  N5  UNL     1      31.899  28.660  41.881  1.00  0.00    -0.271 NA
HETATM   11  H19 UNL     1      31.296  29.068  42.597  1.00  0.00     0.129 HD
BRANCH  10  12
HETATM   12  C13 UNL     1      32.368  27.315  42.198  1.00  0.00     0.135 C 
BRANCH  12  13
HETATM   13  C12 UNL     1      33.879  27.277  42.143  1.00  0.00    -0.012 A 
HETATM   14  C7  UNL     1      34.514  26.419  41.230  1.00  0.00     0.011 A 
HETATM   15  C8  UNL     1      35.907  26.399  41.116  1.00  0.00     0.001 A 
HETATM   16  C9  UNL     1      36.686  27.245  41.904  1.00  0.00     0.003 A 
HETATM   17  C10 UNL     1      36.072  28.112  42.805  1.00  0.00     0.037 A 
HETATM   18  C11 UNL     1      34.684  28.125  42.918  1.00  0.00     0.073 A 
BRANCH  18  19
HETATM   19  O2  UNL     1      34.151  28.994  43.831  1.00  0.00    -0.360 OA
HETATM   20  H16 UNL     1      33.201  29.104  43.609  1.00  0.00     0.217 HD
ENDBRANCH  18  19
ENDBRANCH  12  13
ENDBRANCH  10  12
ENDBRANCH   6  10
BRANCH   4  21
HETATM   21  N3  UNL     1      31.496  27.236  37.427  1.00  0.00    -0.254 NA
HETATM   22  H11 UNL     1      32.102  26.548  37.863  1.00  0.00     0.131 HD
BRANCH  21  23
HETATM   23  C5  UNL     1      30.476  26.689  36.518  1.00  0.00     0.086 C 
BRANCH  23  24
HETATM   24  C2  UNL     1      31.091  26.691  35.100  1.00  0.00     0.184 C 
BRANCH  24  25
HETATM   25  O1  UNL     1      32.316  27.425  35.098  1.00  0.00    -0.399 OA
HETATM   26  H2  UNL     1      32.055  28.358  34.957  1.00  0.00     0.209 HD
ENDBRANCH  24  25
ENDBRANCH  23  24
BRANCH  23  27
HETATM   27  C4  UNL     1      30.061  25.278  36.965  1.00  0.00     0.017 C 
HETATM   28  C3  UNL     1      30.781  24.802  38.218  1.00  0.00     0.007 C 
ENDBRANCH  23  27
ENDBRANCH  21  23
ENDBRANCH   4  21
BRANCH   9  29
HETATM   29  C19 UNL     1      27.715  30.842  37.999  1.00  0.00     0.084 C 
HETATM   30  C17 UNL     1      26.242  30.581  38.319  1.00  0.00     0.032 C 
HETATM   31  C18 UNL     1      27.934  32.275  37.512  1.00  0.00     0.032 C 
ENDBRANCH   9  29
TORSDOF 10
