REMARK  8 active torsions:
REMARK  status: ('A' for Active; 'I' for Inactive)
REMARK    1  A    between atoms: S1_2  and  N1_4 
REMARK    2  A    between atoms: S1_2  and  C11_18 
REMARK    3  A    between atoms: N1_4  and  C1_5 
REMARK    4  A    between atoms: C5_10  and  O3_11 
REMARK    5  A    between atoms: O3_11  and  C6_12 
REMARK    6  A    between atoms: C6_12  and  C7_13 
REMARK    7  A    between atoms: C7_13  and  N2_14 
REMARK    8  A    between atoms: C14_22  and  C17_26 
ROOT
HETATM    1  O1  UNL     1      30.002  31.099  40.407  1.00  0.00    -0.205 OA
HETATM    2  S1  UNL     1      29.515  31.220  39.051  1.00  0.00     0.249 S 
HETATM    3  O2  UNL     1      29.807  32.392  38.256  1.00  0.00    -0.205 OA
ENDROOT
BRANCH   2   4
HETATM    4  N1  UNL     1      30.112  29.808  38.278  1.00  0.00    -0.181 NA
HETATM    5  H1  UNL     1      29.431  29.560  37.557  1.00  0.00     0.146 HD
BRANCH   4   6
HETATM    6  C1  UNL     1      30.291  28.698  39.176  1.00  0.00     0.025 A 
HETATM    7  C2  UNL     1      29.177  28.070  39.737  1.00  0.00     0.026 A 
HETATM    8  C3  UNL     1      29.359  27.019  40.634  1.00  0.00     0.028 A 
HETATM    9  C4  UNL     1      30.650  26.609  40.978  1.00  0.00     0.067 A 
HETATM   10 CL1  UNL     1      30.811  25.291  42.086  1.00  0.00    -0.081 Cl
HETATM   11  C5  UNL     1      31.776  27.252  40.437  1.00  0.00     0.092 A 
HETATM   12  C10 UNL     1      31.583  28.305  39.538  1.00  0.00     0.062 A 
BRANCH  11  13
HETATM   13  O3  UNL     1      33.002  26.793  40.845  1.00  0.00    -0.348 OA
BRANCH  13  14
HETATM   14  C6  UNL     1      33.665  27.499  41.897  1.00  0.00     0.206 C 
BRANCH  14  15
HETATM   15  C7  UNL     1      34.063  26.509  43.009  1.00  0.00     0.297 C 
BRANCH  15  16
HETATM   16  N2  UNL     1      35.478  26.592  43.440  1.00  0.00     0.082 N 
HETATM   17  C8  UNL     1      35.591  27.493  44.590  1.00  0.00     0.309 C 
HETATM   18  C9  UNL     1      36.019  25.276  43.791  1.00  0.00     0.309 C 
ENDBRANCH  15  16
ENDBRANCH  14  15
ENDBRANCH  13  14
ENDBRANCH  11  13
ENDBRANCH   4   6
ENDBRANCH   2   4
BRANCH   2  19
HETATM   19  C11 UNL     1      27.759  30.967  38.985  1.00  0.00     0.118 A 
HETATM   20  C12 UNL     1      26.960  30.934  40.138  1.00  0.00     0.059 A 
HETATM   21 CL2  UNL     1      27.518  31.135  41.759  1.00  0.00    -0.083 Cl
HETATM   22  C13 UNL     1      25.571  30.738  40.031  1.00  0.00     0.041 A 
HETATM   23  C14 UNL     1      24.951  30.578  38.788  1.00  0.00     0.051 A 
HETATM   24  C15 UNL     1      25.748  30.634  37.642  1.00  0.00     0.041 A 
HETATM   25  C16 UNL     1      27.135  30.828  37.731  1.00  0.00     0.059 A 
HETATM   26 CL3  UNL     1      27.955  30.883  36.207  1.00  0.00    -0.083 Cl
BRANCH  23  27
HETATM   27  C17 UNL     1      23.458  30.387  38.674  1.00  0.00     0.417 C 
HETATM   28  F1  UNL     1      22.741  31.393  39.246  1.00  0.00    -0.166 F 
HETATM   29  F2  UNL     1      23.033  29.239  39.269  1.00  0.00    -0.166 F 
HETATM   30  F3  UNL     1      23.047  30.318  37.380  1.00  0.00    -0.166 F 
ENDBRANCH  23  27
ENDBRANCH   2  19
TORSDOF 8
