REMARK  4 active torsions:
REMARK  status: ('A' for Active; 'I' for Inactive)
REMARK    1  A    between atoms: C6_8  and  C10_13 
REMARK    2  A    between atoms: C10_13  and  C11_14 
REMARK    3  A    between atoms: C19_23  and  C21_25 
REMARK    4  A    between atoms: C21_25  and  C22_26 
ROOT
HETATM    1  C1  UNL     1      31.691  27.416  38.637  1.00  0.00     0.289 C 
HETATM    2  O1  UNL     1      31.275  28.640  39.049  1.00  0.00    -0.311 OA
HETATM    3  C2  UNL     1      31.339  27.696  36.258  1.00  0.00    -0.014 C 
HETATM    4  C3  UNL     1      31.130  26.934  37.349  1.00  0.00     0.009 C 
HETATM    5  C4  UNL     1      30.314  28.499  34.068  1.00  0.00     0.010 C 
HETATM    6  C5  UNL     1      30.988  27.346  34.835  1.00  0.00     0.028 C 
HETATM    7  O2  UNL     1      28.366  30.717  34.236  1.00  0.00    -0.311 OA
HETATM    8  C6  UNL     1      28.119  29.626  33.324  1.00  0.00     0.142 C 
HETATM    9  C7  UNL     1      28.783  28.339  33.888  1.00  0.00     0.012 C 
HETATM   10  C8  UNL     1      30.536  25.561  37.389  1.00  0.00     0.054 C 
HETATM   11  O3  UNL     1      32.519  26.763  39.262  1.00  0.00    -0.260 OA
HETATM   12  C9  UNL     1      28.439  27.128  33.004  1.00  0.00     0.012 C 
HETATM   13  C12 UNL     1      27.440  30.904  35.206  1.00  0.00     0.289 C 
HETATM   14  O4  UNL     1      26.474  30.195  35.432  1.00  0.00    -0.260 OA
HETATM   15  C13 UNL     1      27.760  32.148  35.947  1.00  0.00     0.009 C 
HETATM   16  C14 UNL     1      27.686  32.189  37.289  1.00  0.00    -0.014 C 
HETATM   17  C15 UNL     1      28.075  33.356  35.120  1.00  0.00     0.054 C 
HETATM   18  C16 UNL     1      27.418  31.037  38.221  1.00  0.00     0.028 C 
HETATM   19  C17 UNL     1      28.318  31.055  39.464  1.00  0.00     0.010 C 
HETATM   20  C18 UNL     1      29.758  30.514  39.308  1.00  0.00     0.012 C 
HETATM   21  C19 UNL     1      29.856  28.977  39.069  1.00  0.00     0.142 C 
HETATM   22  C20 UNL     1      30.561  31.273  38.242  1.00  0.00     0.012 C 
ENDROOT
BRANCH   8  23
HETATM   23  C10 UNL     1      28.658  30.071  31.947  1.00  0.00     0.099 C 
BRANCH  23  24
HETATM   24  C11 UNL     1      28.231  31.462  31.634  1.00  0.00     0.074 A 
HETATM   25  C25 UNL     1      27.084  32.197  31.828  1.00  0.00     0.151 A 
HETATM   26  N2  UNL     1      27.275  33.482  31.390  1.00  0.00    -0.246 NA
HETATM   27  C26 UNL     1      28.510  33.477  30.946  1.00  0.00     0.258 A 
HETATM   28  O6  UNL     1      29.154  32.285  31.047  1.00  0.00    -0.307 OA
ENDBRANCH  23  24
ENDBRANCH   8  23
BRANCH  21  29
HETATM   29  C21 UNL     1      29.141  28.102  40.128  1.00  0.00     0.099 C 
BRANCH  29  30
HETATM   30  C22 UNL     1      30.023  27.653  41.236  1.00  0.00     0.074 A 
HETATM   31  C23 UNL     1      30.849  28.278  42.147  1.00  0.00     0.151 A 
HETATM   32  N1  UNL     1      31.447  27.336  42.954  1.00  0.00    -0.246 NA
HETATM   33  C24 UNL     1      30.923  26.205  42.542  1.00  0.00     0.258 A 
HETATM   34  O5  UNL     1      30.058  26.312  41.494  1.00  0.00    -0.307 OA
ENDBRANCH  29  30
ENDBRANCH  21  29
TORSDOF 4
