REMARK  3 active torsions:
REMARK  status: ('A' for Active; 'I' for Inactive)
REMARK    1  A    between atoms: C6_9  and  N1_10 
REMARK    2  A    between atoms: C7_11  and  O1_12 
REMARK    3  A    between atoms: N2_14  and  C9_15 
ROOT
HETATM    1 CL1  UNL     1      30.279  29.050  40.703  1.00  0.00    -0.145 Cl
HETATM    2 BR1  UNL     1      25.770  30.323  40.513  1.00  0.00    -0.049 Br
HETATM    3  C1  UNL     1      27.614  30.169  40.050  1.00  0.00     0.039 A 
HETATM    4  C2  UNL     1      28.305  28.975  40.231  1.00  0.00     0.031 A 
HETATM    5  C3  UNL     1      29.625  28.856  39.897  1.00  0.00    -0.025 A 
HETATM    6  C4  UNL     1      30.275  29.943  39.375  1.00  0.00     0.031 A 
HETATM    7  C5  UNL     1      29.618  31.143  39.182  1.00  0.00     0.039 A 
HETATM    8 BR2  UNL     1      30.472  32.673  38.451  1.00  0.00    -0.049 Br
HETATM    9  C6  UNL     1      28.278  31.253  39.523  1.00  0.00     0.060 A 
HETATM   10  C7  UNL     1      30.261  27.504  40.068  1.00  0.00     0.168 A 
HETATM   11  C8  UNL     1      31.724  27.572  40.189  1.00  0.00     0.151 C 
HETATM   12  N2  UNL     1      32.302  28.158  41.307  1.00  0.00    -0.411 N 
HETATM   13  H1  UNL     1      31.153  28.232  41.360  1.00  0.00     0.145 HD
HETATM   14  H10 UNL     1      32.370  29.202  41.301  1.00  0.00     0.154 HD
ENDROOT
BRANCH  12  15
HETATM   15  C9  UNL     1      32.393  27.550  42.557  1.00  0.00     0.014 C 
HETATM   16  C10 UNL     1      33.858  27.637  43.044  1.00  0.00     0.037 C 
HETATM   17  C11 UNL     1      31.562  28.153  43.637  1.00  0.00     0.037 C 
HETATM   18  C12 UNL     1      32.131  26.032  42.485  1.00  0.00     0.037 C 
ENDBRANCH  12  15
BRANCH  10  19
HETATM   19  O1  UNL     1      29.960  26.790  38.861  1.00  0.00    -0.389 OA
HETATM   20  H7  UNL     1      30.508  27.154  38.143  1.00  0.00     0.210 HD
ENDBRANCH  10  19
BRANCH   9  21
HETATM   21  N1  UNL     1      27.559  32.455  39.321  1.00  0.00    -0.397 N 
HETATM   22  H4  UNL     1      27.850  33.309  39.801  1.00  0.00     0.156 HD
HETATM   23  H5  UNL     1      26.747  32.448  38.687  1.00  0.00     0.156 HD
ENDBRANCH   9  21
TORSDOF 3
