REMARK  3 active torsions:
REMARK  status: ('A' for Active; 'I' for Inactive)
REMARK    1  A    between atoms: C2_3  and  C14_19 
REMARK    2  A    between atoms: C5_7  and  C6_8 
REMARK    3  A    between atoms: C10_12  and  C12_14 
ROOT
HETATM    1  O1  UNL     1      33.591  27.863  40.548  1.00  0.00    -0.286 OA
HETATM    2  C1  UNL     1      32.648  27.293  41.092  1.00  0.00     0.196 A 
HETATM    3  C2  UNL     1      32.815  26.590  42.413  1.00  0.00     0.041 A 
HETATM    4  C3  UNL     1      31.736  25.951  42.899  1.00  0.00     0.106 A 
HETATM    5  N1  UNL     1      30.492  25.899  42.287  1.00  0.00    -0.369 N 
HETATM    6  C4  UNL     1      30.321  26.594  41.100  1.00  0.00     0.106 A 
HETATM    7  C5  UNL     1      31.282  27.286  40.461  1.00  0.00     0.041 A 
HETATM    8  C13 UNL     1      29.366  25.217  42.931  1.00  0.00     0.154 C 
ENDROOT
BRANCH   7   9
HETATM    9  C6  UNL     1      31.001  27.975  39.187  1.00  0.00    -0.020 A 
HETATM   10  C7  UNL     1      30.674  29.338  39.164  1.00  0.00     0.012 A 
HETATM   11  C8  UNL     1      30.409  29.987  37.956  1.00  0.00     0.002 A 
HETATM   12  C9  UNL     1      30.470  29.281  36.756  1.00  0.00     0.016 A 
HETATM   13  C10 UNL     1      30.793  27.916  36.751  1.00  0.00     0.048 A 
HETATM   14  C11 UNL     1      31.064  27.276  37.973  1.00  0.00     0.028 A 
BRANCH  13  15
HETATM   15  C12 UNL     1      30.890  27.157  35.451  1.00  0.00     0.417 C 
HETATM   16  F1  UNL     1      30.051  27.645  34.492  1.00  0.00    -0.166 F 
HETATM   17  F2  UNL     1      30.576  25.837  35.574  1.00  0.00    -0.166 F 
HETATM   18  F3  UNL     1      32.137  27.200  34.910  1.00  0.00    -0.166 F 
ENDBRANCH  13  15
ENDBRANCH   7   9
BRANCH   3  19
HETATM   19  C14 UNL     1      34.099  26.565  43.138  1.00  0.00    -0.021 A 
HETATM   20  C15 UNL     1      34.923  25.432  43.087  1.00  0.00     0.012 A 
HETATM   21  C16 UNL     1      36.135  25.400  43.780  1.00  0.00     0.001 A 
HETATM   22  C17 UNL     1      36.540  26.502  44.529  1.00  0.00     0.000 A 
HETATM   23  C18 UNL     1      35.735  27.637  44.585  1.00  0.00     0.001 A 
HETATM   24  C19 UNL     1      34.523  27.670  43.891  1.00  0.00     0.012 A 
ENDBRANCH   3  19
TORSDOF 3
