REMARK  7 active torsions:
REMARK  status: ('A' for Active; 'I' for Inactive)
REMARK    1  A    between atoms: O1_1  and  C1_2 
REMARK    2  A    between atoms: C1_2  and  C2_3 
REMARK    3  A    between atoms: C1_2  and  C8_9 
REMARK    4  A    between atoms: C1_2  and  C14_15 
REMARK    5  A    between atoms: C14_15  and  C15_16 
REMARK    6  A    between atoms: C15_16  and  C16_17 
REMARK    7  A    between atoms: C16_17  and  N1_18 
ROOT
HETATM    1  C1  UNL     1      30.429  28.335  40.083  1.00  0.00     0.112 C 
ENDROOT
BRANCH   1   2
HETATM    2  O1  UNL     1      31.542  29.065  40.614  1.00  0.00    -0.380 OA
HETATM    3  H11 UNL     1      31.173  29.762  41.190  1.00  0.00     0.211 HD
ENDBRANCH   1   2
BRANCH   1   4
HETATM    4  C2  UNL     1      30.577  28.212  38.558  1.00  0.00    -0.019 A 
HETATM    5  C3  UNL     1      30.378  29.334  37.727  1.00  0.00     0.010 A 
HETATM    6  C4  UNL     1      30.493  29.233  36.340  1.00  0.00     0.001 A 
HETATM    7  C5  UNL     1      30.815  28.012  35.756  1.00  0.00     0.000 A 
HETATM    8  C6  UNL     1      31.020  26.893  36.557  1.00  0.00     0.001 A 
HETATM    9  C7  UNL     1      30.900  26.993  37.946  1.00  0.00     0.010 A 
ENDBRANCH   1   4
BRANCH   1  10
HETATM   10  C8  UNL     1      29.196  29.183  40.447  1.00  0.00    -0.019 A 
HETATM   11  C9  UNL     1      29.379  30.411  41.115  1.00  0.00     0.010 A 
HETATM   12  C10 UNL     1      28.295  31.213  41.477  1.00  0.00     0.001 A 
HETATM   13  C11 UNL     1      27.000  30.811  41.167  1.00  0.00     0.000 A 
HETATM   14  C12 UNL     1      26.793  29.613  40.490  1.00  0.00     0.001 A 
HETATM   15  C13 UNL     1      27.878  28.806  40.135  1.00  0.00     0.010 A 
ENDBRANCH   1  10
BRANCH   1  16
HETATM   16  C14 UNL     1      30.437  26.920  40.729  1.00  0.00     0.050 C 
BRANCH  16  17
HETATM   17  C15 UNL     1      31.032  26.804  42.149  1.00  0.00     0.034 C 
BRANCH  17  18
HETATM   18  C16 UNL     1      32.332  25.992  42.276  1.00  0.00     0.272 C 
BRANCH  18  19
HETATM   19  N1  UNL     1      33.548  26.829  42.250  1.00  0.00     0.088 N 
HETATM   20  C17 UNL     1      33.534  27.820  43.341  1.00  0.00     0.272 C 
HETATM   21  C18 UNL     1      34.931  28.237  43.793  1.00  0.00     0.030 C 
HETATM   22  C19 UNL     1      35.705  27.038  44.337  1.00  0.00     0.003 C 
HETATM   23  C20 UNL     1      35.357  25.740  43.610  1.00  0.00     0.030 C 
HETATM   24  C21 UNL     1      34.772  26.012  42.227  1.00  0.00     0.272 C 
ENDBRANCH  18  19
ENDBRANCH  17  18
ENDBRANCH  16  17
ENDBRANCH   1  16
TORSDOF 7
