REMARK  13 active torsions:
REMARK  status: ('A' for Active; 'I' for Inactive)
REMARK    1  A    between atoms: O1_1  and  C1_2 
REMARK    2  A    between atoms: O1_1  and  C17_25 
REMARK    3  A    between atoms: C4_5  and  C5_6 
REMARK       I    between atoms: C5_6  and  N1_7 
REMARK    4  A    between atoms: N1_7  and  C6_8 
REMARK    5  A    between atoms: C6_8  and  C7_9 
REMARK    6  A    between atoms: C6_8  and  C11_16 
REMARK    7  A    between atoms: C7_9  and  C8_10 
REMARK    8  A    between atoms: C8_10  and  C9_11 
REMARK       I    between atoms: C9_11  and  N2_12 
REMARK    9  A    between atoms: N2_12  and  O2_13 
REMARK   10  A    between atoms: C11_16  and  O4_17 
REMARK   11  A    between atoms: O4_17  and  C12_18 
REMARK   12  A    between atoms: C12_18  and  O5_19 
REMARK   13  A    between atoms: O5_19  and  C13_20 
ROOT
HETATM    1  C5  UNL     1      30.553  27.466  39.121  1.00  0.00     0.252 C 
HETATM    2  N1  UNL     1      31.162  27.845  37.944  1.00  0.00    -0.350 N 
HETATM    3  O6  UNL     1      29.343  27.497  39.308  1.00  0.00    -0.268 OA
HETATM    4  H3  UNL     1      32.174  27.848  37.890  1.00  0.00     0.163 HD
ENDROOT
BRANCH   2   5
HETATM    5  C6  UNL     1      30.429  28.160  36.716  1.00  0.00     0.109 C 
BRANCH   5   6
HETATM    6  C7  UNL     1      30.332  29.691  36.540  1.00  0.00     0.041 C 
BRANCH   6   7
HETATM    7  C8  UNL     1      29.334  30.408  37.464  1.00  0.00     0.078 C 
HETATM    8  C10 UNL     1      28.304  31.179  36.636  1.00  0.00     0.020 C 
BRANCH   7   9
HETATM    9  C9  UNL     1      30.057  31.386  38.377  1.00  0.00     0.244 C 
HETATM   10  N2  UNL     1      30.486  32.539  37.759  1.00  0.00    -0.237 N 
HETATM   11  H8  UNL     1      29.934  32.925  36.986  1.00  0.00     0.197 HD
HETATM   12  O3  UNL     1      30.244  31.180  39.576  1.00  0.00    -0.271 OA
BRANCH  10  13
HETATM   13  O2  UNL     1      31.036  33.499  38.649  1.00  0.00    -0.287 OA
HETATM   14  H9  UNL     1      30.384  34.231  38.596  1.00  0.00     0.244 HD
ENDBRANCH  10  13
ENDBRANCH   7   9
ENDBRANCH   6   7
ENDBRANCH   5   6
BRANCH   5  15
HETATM   15  C11 UNL     1      30.994  27.438  35.475  1.00  0.00     0.195 C 
BRANCH  15  16
HETATM   16  O4  UNL     1      30.532  28.103  34.297  1.00  0.00    -0.365 OA
BRANCH  16  17
HETATM   17  C12 UNL     1      29.656  27.282  33.535  1.00  0.00     0.337 C 
BRANCH  17  18
HETATM   18  O5  UNL     1      29.071  28.107  32.539  1.00  0.00    -0.367 OA
BRANCH  18  19
HETATM   19  C13 UNL     1      28.080  28.992  33.053  1.00  0.00     0.166 C 
HETATM   20  C14 UNL     1      28.410  30.446  32.761  1.00  0.00     0.033 C 
ENDBRANCH  18  19
ENDBRANCH  17  18
ENDBRANCH  16  17
ENDBRANCH  15  16
ENDBRANCH   5  15
ENDBRANCH   2   5
BRANCH   1  21
HETATM   21  C4  UNL     1      31.464  27.034  40.211  1.00  0.00     0.032 A 
HETATM   22  C3  UNL     1      31.979  28.003  41.081  1.00  0.00     0.020 A 
HETATM   23  C2  UNL     1      32.837  27.627  42.115  1.00  0.00     0.038 A 
HETATM   24  C1  UNL     1      33.153  26.280  42.300  1.00  0.00     0.076 A 
HETATM   25  C16 UNL     1      32.645  25.309  41.433  1.00  0.00     0.038 A 
HETATM   26  C15 UNL     1      31.791  25.684  40.394  1.00  0.00     0.020 A 
BRANCH  24  27
HETATM   27  O1  UNL     1      34.028  25.974  43.317  1.00  0.00    -0.311 OA
BRANCH  27  28
HETATM   28  C17 UNL     1      35.247  26.613  43.306  1.00  0.00     0.076 A 
HETATM   29  C18 UNL     1      35.669  27.199  44.499  1.00  0.00     0.037 A 
HETATM   30  C19 UNL     1      36.908  27.834  44.560  1.00  0.00     0.003 A 
HETATM   31  C20 UNL     1      37.731  27.870  43.430  1.00  0.00     0.000 A 
HETATM   32  C21 UNL     1      37.318  27.262  42.245  1.00  0.00     0.003 A 
HETATM   33  C22 UNL     1      36.079  26.627  42.183  1.00  0.00     0.037 A 
ENDBRANCH  27  28
ENDBRANCH  24  27
ENDBRANCH   1  21
TORSDOF 13
