REMARK  10 active torsions:
REMARK  status: ('A' for Active; 'I' for Inactive)
REMARK    1  A    between atoms: C1_2  and  O2_3 
REMARK    2  A    between atoms: C1_2  and  C2_4 
REMARK    3  A    between atoms: C2_4  and  C3_5 
REMARK    4  A    between atoms: C3_5  and  C4_6 
REMARK    5  A    between atoms: C4_6  and  O3_7 
REMARK    6  A    between atoms: O3_7  and  C5_8 
REMARK    7  A    between atoms: C12_18  and  C14_20 
REMARK    8  A    between atoms: C12_18  and  C19_25 
REMARK    9  A    between atoms: C14_20  and  C15_21 
REMARK   10  A    between atoms: C15_21  and  C16_22 
ROOT
HETATM    1  C5  UNL     1      30.425  28.708  37.526  1.00  0.00     0.092 A 
HETATM    2  C6  UNL     1      31.350  27.744  37.941  1.00  0.00     0.046 A 
HETATM    3  C7  UNL     1      31.652  27.636  39.293  1.00  0.00    -0.039 A 
HETATM    4  C8  UNL     1      31.050  28.473  40.225  1.00  0.00     0.041 A 
HETATM    5  C9  UNL     1      30.132  29.447  39.854  1.00  0.00     0.073 A 
HETATM    6 CL1  UNL     1      29.399  30.477  41.030  1.00  0.00    -0.081 Cl
HETATM    7  C10 UNL     1      29.820  29.561  38.486  1.00  0.00     0.090 A 
HETATM    8 CL2  UNL     1      28.673  30.753  37.937  1.00  0.00    -0.080 Cl
HETATM    9  C11 UNL     1      31.575  28.116  41.548  1.00  0.00     0.171 A 
HETATM   10  O4  UNL     1      31.270  28.697  42.573  1.00  0.00    -0.291 OA
HETATM   11  C12 UNL     1      32.548  26.931  41.447  1.00  0.00     0.033 A 
HETATM   12  C13 UNL     1      32.615  26.667  39.901  1.00  0.00     0.057 A 
ENDROOT
BRANCH  11  13
HETATM   13  C14 UNL     1      31.912  25.658  42.084  1.00  0.00     0.018 C 
BRANCH  13  14
HETATM   14  C15 UNL     1      30.870  24.874  41.280  1.00  0.00     0.001 C 
BRANCH  14  15
HETATM   15  C16 UNL     1      31.474  23.683  40.524  1.00  0.00    -0.005 C 
HETATM   16  C17 UNL     1      31.186  23.703  39.031  1.00  0.00     0.005 C 
ENDBRANCH  14  15
ENDBRANCH  13  14
ENDBRANCH  11  13
BRANCH  11  17
HETATM   17  C19 UNL     1      33.966  27.294  41.986  1.00  0.00     0.002 C 
HETATM   18  C18 UNL     1      35.189  26.757  41.215  1.00  0.00     0.006 C 
HETATM   19  C22 UNL     1      36.240  26.366  42.255  1.00  0.00     0.000 C 
HETATM   20  C21 UNL     1      35.755  26.966  43.559  1.00  0.00     0.000 C 
HETATM   21  C20 UNL     1      34.244  26.863  43.441  1.00  0.00     0.006 C 
ENDBRANCH  11  17
BRANCH   1  22
HETATM   22  O3  UNL     1      30.052  28.897  36.219  1.00  0.00    -0.349 OA
BRANCH  22  23
HETATM   23  C4  UNL     1      30.634  28.063  35.219  1.00  0.00     0.176 C 
BRANCH  23  24
HETATM   24  C3  UNL     1      29.938  28.371  33.898  1.00  0.00     0.037 C 
BRANCH  24  25
HETATM   25  C2  UNL     1      28.957  29.525  34.039  1.00  0.00     0.112 C 
BRANCH  25  26
HETATM   26  C1  UNL     1      28.422  29.942  32.700  1.00  0.00     0.139 C 
HETATM   27  O1  UNL     1      27.304  30.372  32.474  1.00  0.00    -0.650 OA
BRANCH  26  28
HETATM   28  O2  UNL     1      29.324  29.802  31.713  1.00  0.00    -0.776 OA
HETATM   29  H1  UNL     1      28.985  30.376  30.992  1.00  0.00     0.167 HD
ENDBRANCH  26  28
ENDBRANCH  25  26
ENDBRANCH  24  25
ENDBRANCH  23  24
ENDBRANCH  22  23
ENDBRANCH   1  22
TORSDOF 10
