REMARK  5 active torsions:
REMARK  status: ('A' for Active; 'I' for Inactive)
REMARK    1  A    between atoms: C1_1  and  C11_19 
REMARK    2  A    between atoms: C2_4  and  C3_6 
REMARK    3  A    between atoms: C5_8  and  N4_25 
REMARK    4  A    between atoms: C6_9  and  O3_13 
REMARK    5  A    between atoms: C7_10  and  O2_12 
ROOT
HETATM    1  C1  UNL     1      31.129  27.736  39.790  1.00  0.00     0.193 A 
HETATM    2  N1  UNL     1      30.867  26.428  39.909  1.00  0.00    -0.105 NA
HETATM    3  O1  UNL     1      31.798  25.999  40.857  1.00  0.00    -0.190 OA
HETATM    4  C2  UNL     1      32.535  27.096  41.204  1.00  0.00     0.206 A 
HETATM    5  N2  UNL     1      32.173  28.184  40.560  1.00  0.00    -0.199 NA
ENDROOT
BRANCH   4   6
HETATM    6  C3  UNL     1      33.582  26.915  42.203  1.00  0.00     0.024 A 
HETATM    7  C4  UNL     1      34.432  25.797  42.196  1.00  0.00     0.055 A 
HETATM    8  C5  UNL     1      35.427  25.677  43.177  1.00  0.00     0.139 A 
HETATM    9  C6  UNL     1      35.585  26.632  44.172  1.00  0.00     0.132 A 
HETATM   10  C7  UNL     1      34.739  27.737  44.177  1.00  0.00     0.102 A 
HETATM   11  C8  UNL     1      33.749  27.888  43.207  1.00  0.00     0.055 A 
BRANCH   8  12
HETATM   12  N4  UNL     1      36.295  24.521  43.133  1.00  0.00    -0.113 N 
HETATM   13  O5  UNL     1      36.226  23.722  44.075  1.00  0.00    -0.532 OA
HETATM   14  O6  UNL     1      37.096  24.465  42.190  1.00  0.00    -0.532 OA
ENDBRANCH   8  12
BRANCH   9  15
HETATM   15  O3  UNL     1      36.523  26.515  45.155  1.00  0.00    -0.356 OA
HETATM   16  H4  UNL     1      36.139  25.907  45.820  1.00  0.00     0.218 HD
ENDBRANCH   9  15
BRANCH  10  17
HETATM   17  O2  UNL     1      34.916  28.659  45.171  1.00  0.00    -0.358 OA
HETATM   18  H3  UNL     1      34.459  28.354  45.975  1.00  0.00     0.217 HD
ENDBRANCH  10  17
ENDBRANCH   4   6
BRANCH   1  19
HETATM   19  C11 UNL     1      30.397  28.617  38.899  1.00  0.00     0.063 A 
HETATM   20  C12 UNL     1      29.591  29.653  39.418  1.00  0.00    -0.021 A 
HETATM   21  C9  UNL     1      29.457  29.868  40.910  1.00  0.00     0.051 C 
HETATM   22  C14 UNL     1      28.948  30.516  38.514  1.00  0.00     0.065 A 
HETATM   23 CL2  UNL     1      28.012  31.856  39.107  1.00  0.00    -0.082 Cl
HETATM   24  C15 UNL     1      29.052  30.327  37.124  1.00  0.00     0.063 A 
HETATM   25  C10 UNL     1      28.364  31.227  36.136  1.00  0.00     0.073 C 
HETATM   26  N3  UNL     1      29.826  29.278  36.621  1.00  0.00    -0.179 N 
HETATM   27  O4  UNL     1      29.917  29.101  35.358  1.00  0.00    -0.079 OA
HETATM   28  C13 UNL     1      30.505  28.428  37.506  1.00  0.00     0.149 A 
HETATM   29 CL1  UNL     1      31.503  27.147  36.856  1.00  0.00    -0.061 Cl
ENDBRANCH   1  19
TORSDOF 5
