REMARK  2 active torsions:
REMARK  status: ('A' for Active; 'I' for Inactive)
REMARK    1  A    between atoms: C13_14  and  O2_15 
REMARK    2  A    between atoms: C17_19  and  O3_20 
ROOT
HETATM    1  C1  UNL     1      28.029  29.613  40.083  1.00  0.00     0.020 C 
HETATM    2  C2  UNL     1      29.390  29.946  39.424  1.00  0.00    -0.017 C 
HETATM    3  C3  UNL     1      30.536  29.027  40.014  1.00  0.00     0.005 C 
HETATM    4  C4  UNL     1      30.353  27.541  39.551  1.00  0.00     0.028 C 
HETATM    5  C5  UNL     1      31.434  26.677  40.214  1.00  0.00     0.009 C 
HETATM    6  C6  UNL     1      31.361  26.735  41.752  1.00  0.00     0.021 C 
HETATM    7  C7  UNL     1      30.039  26.264  42.384  1.00  0.00     0.024 C 
HETATM    8  C8  UNL     1      31.709  28.158  42.171  1.00  0.00     0.018 C 
HETATM    9  C9  UNL     1      30.722  29.165  41.554  1.00  0.00     0.007 C 
HETATM   10  C10 UNL     1      32.396  25.667  42.062  1.00  0.00     0.135 C 
HETATM   11  O1  UNL     1      33.028  25.592  43.107  1.00  0.00    -0.297 OA
HETATM   12  C11 UNL     1      32.523  24.671  40.922  1.00  0.00     0.079 C 
HETATM   13  C12 UNL     1      31.500  25.186  39.899  1.00  0.00     0.013 C 
HETATM   14  C13 UNL     1      30.365  27.443  38.011  1.00  0.00     0.146 C 
HETATM   15  C14 UNL     1      29.707  28.595  37.316  1.00  0.00     0.008 C 
HETATM   16  C15 UNL     1      29.289  29.729  37.912  1.00  0.00    -0.070 C 
HETATM   17  C16 UNL     1      28.865  30.896  37.038  1.00  0.00     0.066 C 
HETATM   18  C17 UNL     1      28.126  32.042  37.736  1.00  0.00     0.122 C 
HETATM   19  C18 UNL     1      28.700  32.423  39.103  1.00  0.00     0.033 C 
HETATM   20  C19 UNL     1      29.734  31.437  39.663  1.00  0.00     0.016 C 
ENDROOT
BRANCH  14  21
HETATM   21  O2  UNL     1      31.710  27.394  37.538  1.00  0.00    -0.391 OA
HETATM   22  H19 UNL     1      31.827  26.559  37.057  1.00  0.00     0.210 HD
ENDBRANCH  14  21
BRANCH  18  23
HETATM   23  O3  UNL     1      26.737  31.730  37.884  1.00  0.00    -0.395 OA
HETATM   24  H24 UNL     1      26.595  31.425  38.796  1.00  0.00     0.210 HD
ENDBRANCH  18  23
TORSDOF 2
