REMARK  6 active torsions:
REMARK  status: ('A' for Active; 'I' for Inactive)
REMARK    1  A    between atoms: C4_4  and  O1_7 
REMARK    2  A    between atoms: C5_5  and  S1_12 
REMARK    3  A    between atoms: O1_7  and  C7_8 
REMARK    4  A    between atoms: S1_12  and  N1_13 
REMARK    5  A    between atoms: N1_13  and  C8_14 
REMARK    6  A    between atoms: N2_23  and  C16_27 
ROOT
HETATM    1  C8  UNL     1      32.594  27.323  42.542  1.00  0.00     0.043 A 
HETATM    2  C9  UNL     1      32.461  26.146  41.774  1.00  0.00     0.031 A 
HETATM    3  C10 UNL     1      31.631  26.098  40.644  1.00  0.00     0.020 A 
HETATM    4  C11 UNL     1      30.929  27.240  40.326  1.00  0.00     0.048 A 
HETATM    5  C12 UNL     1      31.034  28.387  41.086  1.00  0.00     0.050 A 
HETATM    6  C13 UNL     1      31.849  28.460  42.200  1.00  0.00     0.048 A 
HETATM    7  C14 UNL     1      29.995  27.516  39.236  1.00  0.00     0.262 A 
HETATM    8  N2  UNL     1      29.555  28.801  39.414  1.00  0.00    -0.266 N 
HETATM    9  C15 UNL     1      30.167  29.395  40.483  1.00  0.00     0.262 A 
HETATM   10  O4  UNL     1      30.065  30.534  40.896  1.00  0.00    -0.267 OA
HETATM   11  O5  UNL     1      29.694  26.718  38.371  1.00  0.00    -0.267 OA
ENDROOT
BRANCH   1  12
HETATM   12  N1  UNL     1      33.369  27.411  43.733  1.00  0.00    -0.281 N 
HETATM   13  H5  UNL     1      32.896  27.513  44.631  1.00  0.00     0.179 HD
BRANCH  12  14
HETATM   14  S1  UNL     1      34.975  27.900  43.810  1.00  0.00     0.266 S 
HETATM   15  O2  UNL     1      35.193  28.879  42.768  1.00  0.00    -0.200 OA
HETATM   16  O3  UNL     1      35.223  28.199  45.204  1.00  0.00    -0.200 OA
BRANCH  14  17
HETATM   17  C5  UNL     1      35.899  26.430  43.439  1.00  0.00     0.113 A 
HETATM   18  C4  UNL     1      36.995  26.474  42.570  1.00  0.00     0.101 A 
HETATM   19  C3  UNL     1      37.705  25.298  42.303  1.00  0.00     0.039 A 
HETATM   20  C2  UNL     1      37.300  24.087  42.865  1.00  0.00     0.003 A 
HETATM   21  C1  UNL     1      36.200  24.043  43.718  1.00  0.00     0.002 A 
HETATM   22  C6  UNL     1      35.502  25.214  44.012  1.00  0.00     0.028 A 
BRANCH  18  23
HETATM   23  O1  UNL     1      37.442  27.667  42.073  1.00  0.00    -0.254 OA
BRANCH  23  24
HETATM   24  C7  UNL     1      38.491  28.233  42.854  1.00  0.00     0.530 C 
HETATM   25  F1  UNL     1      38.680  27.546  44.003  1.00  0.00    -0.144 F 
HETATM   26  F2  UNL     1      38.211  29.521  43.154  1.00  0.00    -0.144 F 
HETATM   27  F3  UNL     1      39.637  28.210  42.143  1.00  0.00    -0.144 F 
ENDBRANCH  23  24
ENDBRANCH  18  23
ENDBRANCH  14  17
ENDBRANCH  12  14
ENDBRANCH   1  12
BRANCH   8  28
HETATM   28  C16 UNL     1      28.720  29.487  38.440  1.00  0.00     0.189 C 
HETATM   29  C17 UNL     1      29.587  30.447  37.619  1.00  0.00     0.247 C 
HETATM   30  N3  UNL     1      28.906  31.441  36.951  1.00  0.00    -0.296 N 
HETATM   31  O6  UNL     1      30.804  30.333  37.496  1.00  0.00    -0.271 OA
HETATM   32  C18 UNL     1      27.583  31.785  37.077  1.00  0.00     0.224 C 
HETATM   33  H10 UNL     1      29.475  32.071  36.399  1.00  0.00     0.171 HD
HETATM   34  C19 UNL     1      26.726  30.875  37.926  1.00  0.00     0.106 C 
HETATM   35  O7  UNL     1      27.123  32.756  36.485  1.00  0.00    -0.273 OA
HETATM   36  C20 UNL     1      27.536  30.237  39.044  1.00  0.00     0.045 C 
ENDBRANCH   8  28
TORSDOF 6
