REMARK  4 active torsions:
REMARK  status: ('A' for Active; 'I' for Inactive)
REMARK    1  A    between atoms: O1_1  and  C1_2 
REMARK    2  A    between atoms: C8_9  and  O2_10 
REMARK    3  A    between atoms: C10_12  and  O3_13 
REMARK    4  A    between atoms: C19_23  and  O4_24 
ROOT
HETATM    1  C1  UNL     1      31.335  27.279  38.428  1.00  0.00     0.111 C 
HETATM    2  C2  UNL     1      31.156  28.310  39.365  1.00  0.00     0.022 C 
HETATM    3  C3  UNL     1      30.472  29.471  38.910  1.00  0.00    -0.004 C 
HETATM    4  C4  UNL     1      30.067  30.527  39.947  1.00  0.00     0.261 C 
HETATM    5  C5  UNL     1      29.561  29.756  41.198  1.00  0.00     0.080 C 
HETATM    6  C6  UNL     1      30.673  28.876  41.731  1.00  0.00    -0.042 C 
HETATM    7  C7  UNL     1      31.528  28.227  40.807  1.00  0.00     0.020 C 
HETATM    8  C8  UNL     1      32.698  27.616  41.321  1.00  0.00     0.113 C 
HETATM    9  C10 UNL     1      32.938  27.555  42.716  1.00  0.00     0.102 C 
HETATM   10  C12 UNL     1      31.994  28.090  43.598  1.00  0.00     0.040 C 
HETATM   11  C13 UNL     1      30.877  28.762  43.110  1.00  0.00     0.011 C 
HETATM   12  N1  UNL     1      29.050  31.494  39.444  1.00  0.00     0.093 N 
HETATM   13  C14 UNL     1      28.892  32.631  40.355  1.00  0.00     0.310 C 
HETATM   14  C15 UNL     1      29.460  31.993  38.119  1.00  0.00     0.277 C 
HETATM   15  C16 UNL     1      29.420  30.868  37.085  1.00  0.00     0.069 C 
HETATM   16  C17 UNL     1      30.152  29.637  37.547  1.00  0.00    -0.044 C 
HETATM   17  C18 UNL     1      30.439  28.620  36.628  1.00  0.00     0.047 C 
HETATM   18  C19 UNL     1      31.009  27.430  37.067  1.00  0.00     0.102 C 
ENDROOT
BRANCH   1  19
HETATM   19  O1  UNL     1      31.755  26.031  38.828  1.00  0.00    -0.357 OA
HETATM   20  H1  UNL     1      32.651  26.172  39.189  1.00  0.00     0.217 HD
ENDBRANCH   1  19
BRANCH  18  21
HETATM   21  O4  UNL     1      31.272  26.329  36.286  1.00  0.00    -0.353 OA
HETATM   22  C20 UNL     1      30.697  26.317  34.984  1.00  0.00     0.210 C 
ENDBRANCH  18  21
BRANCH   8  23
HETATM   23  O2  UNL     1      33.671  27.249  40.413  1.00  0.00    -0.352 OA
HETATM   24  C9  UNL     1      34.512  26.189  40.865  1.00  0.00     0.210 C 
ENDBRANCH   8  23
BRANCH   9  25
HETATM   25  O3  UNL     1      34.121  26.994  43.127  1.00  0.00    -0.353 OA
HETATM   26  C11 UNL     1      34.931  27.731  44.032  1.00  0.00     0.210 C 
ENDBRANCH   9  25
TORSDOF 4
