REMARK  5 active torsions:
REMARK  status: ('A' for Active; 'I' for Inactive)
REMARK    1  A    between atoms: C1_1  and  C2_2 
REMARK    2  A    between atoms: C1_1  and  C14_17 
REMARK    3  A    between atoms: C6_6  and  O1_7 
REMARK    4  A    between atoms: C7_8  and  O2_9 
REMARK    5  A    between atoms: C17_20  and  O3_21 
ROOT
HETATM    1  C2  UNL     1      28.513  30.007  38.761  1.00  0.00     0.227 C 
HETATM    2  C3  UNL     1      29.453  28.857  39.142  1.00  0.00    -0.018 A 
HETATM    3  C4  UNL     1      30.413  28.490  38.175  1.00  0.00    -0.045 A 
HETATM    4  C5  UNL     1      31.258  27.399  38.382  1.00  0.00     0.047 A 
HETATM    5  C6  UNL     1      31.163  26.689  39.569  1.00  0.00     0.099 A 
HETATM    6  C7  UNL     1      30.240  27.036  40.560  1.00  0.00     0.101 A 
HETATM    7  C9  UNL     1      29.387  28.123  40.343  1.00  0.00     0.049 A 
HETATM    8  C10 UNL     1      30.533  29.349  36.947  1.00  0.00     0.067 C 
HETATM    9  C11 UNL     1      30.609  30.798  37.417  1.00  0.00     0.242 C 
HETATM   10  N1  UNL     1      29.323  31.258  38.196  1.00  0.00    -0.066 N 
HETATM   11  C12 UNL     1      29.787  32.177  39.320  1.00  0.00     0.272 C 
HETATM   12  C13 UNL     1      28.464  32.065  37.219  1.00  0.00     0.272 C 
ENDROOT
BRANCH   1  13
HETATM   13  C1  UNL     1      27.457  30.363  39.856  1.00  0.00     0.077 C 
BRANCH  13  14
HETATM   14  C14 UNL     1      26.003  30.371  39.444  1.00  0.00    -0.056 A 
HETATM   15  C15 UNL     1      24.997  30.093  40.383  1.00  0.00     0.010 A 
HETATM   16  C16 UNL     1      23.650  30.098  40.008  1.00  0.00     0.037 A 
HETATM   17  C17 UNL     1      23.310  30.368  38.688  1.00  0.00     0.065 A 
HETATM   18  C18 UNL     1      24.291  30.616  37.738  1.00  0.00     0.037 A 
HETATM   19  C19 UNL     1      25.636  30.604  38.109  1.00  0.00     0.010 A 
BRANCH  17  20
HETATM   20  O3  UNL     1      22.014  30.392  38.276  1.00  0.00    -0.361 OA
HETATM   21  H22 UNL     1      21.697  29.481  38.148  1.00  0.00     0.217 HD
ENDBRANCH  17  20
ENDBRANCH  13  14
ENDBRANCH   1  13
BRANCH   6  22
HETATM   22  O2  UNL     1      30.275  26.244  41.676  1.00  0.00    -0.353 OA
HETATM   23  C8  UNL     1      31.126  26.649  42.743  1.00  0.00     0.210 C 
ENDBRANCH   6  22
BRANCH   5  24
HETATM   24  O1  UNL     1      32.012  25.633  39.751  1.00  0.00    -0.358 OA
HETATM   25  H5  UNL     1      31.951  25.099  38.935  1.00  0.00     0.217 HD
ENDBRANCH   5  24
TORSDOF 5
