REMARK  7 active torsions:
REMARK  status: ('A' for Active; 'I' for Inactive)
REMARK       I    between atoms: C1_2  and  N1_3 
REMARK    1  A    between atoms: C1_2  and  C13_16 
REMARK    2  A    between atoms: N1_3  and  C2_4 
REMARK    3  A    between atoms: C5_7  and  C8_10 
REMARK    4  A    between atoms: C13_16  and  C14_17 
REMARK    5  A    between atoms: C14_17  and  C15_18 
REMARK    6  A    between atoms: C15_18  and  C16_19 
REMARK    7  A    between atoms: C16_19  and  N3_20 
ROOT
HETATM    1  O1  UNL     1      30.131  26.725  40.657  1.00  0.00    -0.273 OA
HETATM    2  C1  UNL     1      31.302  26.569  40.332  1.00  0.00     0.222 C 
HETATM    3  N1  UNL     1      31.880  26.936  39.126  1.00  0.00    -0.327 N 
HETATM    4  H1  UNL     1      32.863  26.725  39.012  1.00  0.00     0.169 HD
ENDROOT
BRANCH   3   5
HETATM    5  C2  UNL     1      31.256  27.568  38.031  1.00  0.00     0.034 A 
HETATM    6  C3  UNL     1      30.742  28.862  38.065  1.00  0.00     0.030 A 
HETATM    7  C4  UNL     1      30.137  29.418  36.929  1.00  0.00     0.014 A 
HETATM    8  C5  UNL     1      30.029  28.695  35.731  1.00  0.00    -0.024 A 
HETATM    9  C6  UNL     1      30.551  27.394  35.708  1.00  0.00     0.014 A 
HETATM   10  C7  UNL     1      31.156  26.838  36.843  1.00  0.00     0.030 A 
BRANCH   8  11
HETATM   11  C8  UNL     1      29.391  29.282  34.543  1.00  0.00    -0.008 A 
HETATM   12  C9  UNL     1      28.564  30.410  34.627  1.00  0.00     0.015 A 
HETATM   13  C10 UNL     1      27.971  30.937  33.481  1.00  0.00     0.020 A 
HETATM   14  C11 UNL     1      28.222  30.320  32.268  1.00  0.00     0.116 A 
HETATM   15  N2  UNL     1      29.010  29.233  32.132  1.00  0.00    -0.272 NA
HETATM   16  C12 UNL     1      29.573  28.748  33.266  1.00  0.00     0.128 A 
ENDBRANCH   8  11
ENDBRANCH   3   5
BRANCH   2  17
HETATM   17  C13 UNL     1      32.318  25.905  41.253  1.00  0.00     0.103 C 
BRANCH  17  18
HETATM   18  C14 UNL     1      32.056  26.213  42.727  1.00  0.00     0.011 C 
BRANCH  18  19
HETATM   19  C15 UNL     1      32.731  27.502  43.207  1.00  0.00     0.031 C 
BRANCH  19  20
HETATM   20  C16 UNL     1      34.051  27.796  42.480  1.00  0.00     0.272 C 
BRANCH  20  21
HETATM   21  N3  UNL     1      35.185  27.112  43.115  1.00  0.00     0.092 N 
HETATM   22  C17 UNL     1      36.069  28.014  43.884  1.00  0.00     0.298 C 
HETATM   23  C18 UNL     1      37.384  28.356  43.165  1.00  0.00     0.198 C 
HETATM   24  O2  UNL     1      38.168  27.202  42.836  1.00  0.00    -0.388 OA
HETATM   25  C19 UNL     1      37.376  26.026  42.620  1.00  0.00     0.198 C 
HETATM   26  C20 UNL     1      35.965  26.351  42.113  1.00  0.00     0.298 C 
ENDBRANCH  20  21
ENDBRANCH  19  20
ENDBRANCH  18  19
ENDBRANCH  17  18
ENDBRANCH   2  17
TORSDOF 7
