REMARK  2 active torsions:
REMARK  status: ('A' for Active; 'I' for Inactive)
REMARK    1  A    between atoms: C6_7  and  C7_8 
REMARK    2  A    between atoms: C12_18  and  C15_21 
ROOT
HETATM    1  C7  UNL     1      29.870  28.746  39.461  1.00  0.00     0.077 C 
HETATM    2  N1  UNL     1      29.898  28.510  38.194  1.00  0.00    -0.280 NA
HETATM    3  C8  UNL     1      30.919  27.662  37.593  1.00  0.00     0.230 C 
HETATM    4  C9  UNL     1      30.865  26.262  38.076  1.00  0.00     0.155 A 
HETATM    5  N2  UNL     1      30.743  25.178  37.344  1.00  0.00    -0.133 NA
HETATM    6  N3  UNL     1      30.909  24.101  38.164  1.00  0.00    -0.135 NA
HETATM    7  C10 UNL     1      31.128  24.540  39.389  1.00  0.00     0.131 A 
HETATM    8  N4  UNL     1      31.103  25.930  39.397  1.00  0.00    -0.276 N 
HETATM    9  C11 UNL     1      31.297  26.872  40.412  1.00  0.00     0.096 A 
HETATM   10  S1  UNL     1      32.246  26.484  41.758  1.00  0.00    -0.075 SA
HETATM   11  C12 UNL     1      32.118  28.062  42.392  1.00  0.00    -0.015 A 
HETATM   12  C13 UNL     1      31.335  28.860  41.583  1.00  0.00     0.031 A 
HETATM   13  C14 UNL     1      30.817  28.172  40.426  1.00  0.00     0.029 A 
HETATM   14  C17 UNL     1      31.276  23.653  40.567  1.00  0.00     0.093 C 
ENDROOT
BRANCH   1  15
HETATM   15  C6  UNL     1      28.820  29.670  39.967  1.00  0.00     0.032 A 
HETATM   16  C1  UNL     1      29.042  31.044  40.070  1.00  0.00     0.129 A 
HETATM   17  F1  UNL     1      30.222  31.582  39.728  1.00  0.00    -0.205 F 
HETATM   18  C2  UNL     1      28.048  31.890  40.555  1.00  0.00     0.043 A 
HETATM   19  C3  UNL     1      26.821  31.362  40.956  1.00  0.00     0.003 A 
HETATM   20  C4  UNL     1      26.596  29.986  40.878  1.00  0.00     0.001 A 
HETATM   21  C5  UNL     1      27.594  29.139  40.390  1.00  0.00     0.017 A 
ENDBRANCH   1  15
BRANCH  11  22
HETATM   22  C15 UNL     1      32.797  28.428  43.678  1.00  0.00     0.042 C 
HETATM   23  C16 UNL     1      34.288  28.129  43.631  1.00  0.00     0.010 C 
ENDBRANCH  11  22
TORSDOF 2
