REMARK  6 active torsions:
REMARK  status: ('A' for Active; 'I' for Inactive)
REMARK    1  A    between atoms: C7_8  and  C17_19 
REMARK    2  A    between atoms: C9_10  and  O2_18 
REMARK    3  A    between atoms: C12_13  and  O3_24 
REMARK    4  A    between atoms: C17_19  and  C18_20 
REMARK    5  A    between atoms: C18_20  and  C19_21 
REMARK    6  A    between atoms: C19_21  and  C20_22 
ROOT
HETATM    1  C1  UNL     1      30.317  29.429  38.372  1.00  0.00     0.031 C 
HETATM    2  C2  UNL     1      29.820  29.942  39.740  1.00  0.00     0.065 C 
HETATM    3  O1  UNL     1      30.799  29.625  40.747  1.00  0.00    -0.340 OA
HETATM    4  C3  UNL     1      31.292  28.348  40.748  1.00  0.00     0.079 A 
HETATM    5  C4  UNL     1      31.165  27.449  39.680  1.00  0.00     0.013 A 
HETATM    6  C5  UNL     1      30.501  27.891  38.390  1.00  0.00     0.032 C 
HETATM    7  C6  UNL     1      31.938  27.982  41.935  1.00  0.00     0.044 A 
HETATM    8  C7  UNL     1      32.421  26.685  42.116  1.00  0.00    -0.053 A 
HETATM    9  C8  UNL     1      32.238  25.757  41.090  1.00  0.00     0.044 A 
HETATM   10  C9  UNL     1      31.601  26.134  39.902  1.00  0.00     0.075 A 
HETATM   11  C10 UNL     1      31.240  27.494  37.090  1.00  0.00     0.016 C 
HETATM   12  C11 UNL     1      30.447  27.908  35.838  1.00  0.00     0.011 C 
HETATM   13  C12 UNL     1      30.113  29.406  35.857  1.00  0.00     0.122 C 
HETATM   14  C13 UNL     1      29.453  29.833  37.170  1.00  0.00     0.040 C 
HETATM   15  C14 UNL     1      29.744  31.480  39.756  1.00  0.00     0.046 C 
HETATM   16  C15 UNL     1      28.447  29.400  40.172  1.00  0.00     0.046 C 
HETATM   17  C16 UNL     1      31.214  27.530  34.570  1.00  0.00     0.012 C 
ENDROOT
BRANCH   8  18
HETATM   18  C17 UNL     1      33.125  26.299  43.394  1.00  0.00     0.039 C 
BRANCH  18  19
HETATM   19  C18 UNL     1      34.565  26.814  43.419  1.00  0.00     0.005 C 
BRANCH  19  20
HETATM   20  C19 UNL     1      35.610  25.695  43.411  1.00  0.00    -0.000 C 
BRANCH  20  21
HETATM   21  C20 UNL     1      36.420  25.551  42.120  1.00  0.00    -0.005 C 
HETATM   22  C21 UNL     1      35.936  26.454  40.995  1.00  0.00     0.005 C 
ENDBRANCH  20  21
ENDBRANCH  19  20
ENDBRANCH  18  19
ENDBRANCH   8  18
BRANCH  10  23
HETATM   23  O2  UNL     1      31.364  25.174  38.957  1.00  0.00    -0.360 OA
HETATM   24  H20 UNL     1      32.183  25.002  38.466  1.00  0.00     0.217 HD
ENDBRANCH  10  23
BRANCH  13  25
HETATM   25  O3  UNL     1      29.238  29.734  34.780  1.00  0.00    -0.395 OA
HETATM   26  H32 UNL     1      29.783  30.005  34.022  1.00  0.00     0.210 HD
ENDBRANCH  13  25
TORSDOF 6
