REMARK  11 active torsions:
REMARK  status: ('A' for Active; 'I' for Inactive)
REMARK       I    between atoms: C1_2  and  N1_3 
REMARK    1  A    between atoms: C1_2  and  C16_22 
REMARK    2  A    between atoms: N1_3  and  C2_4 
REMARK    3  A    between atoms: C5_7  and  O2_8 
REMARK    4  A    between atoms: O2_8  and  C6_9 
REMARK    5  A    between atoms: C6_9  and  C7_10 
REMARK    6  A    between atoms: C7_10  and  O3_11 
REMARK    7  A    between atoms: C7_10  and  C8_12 
REMARK    8  A    between atoms: C8_12  and  N2_13 
REMARK    9  A    between atoms: N2_13  and  C9_14 
REMARK   10  A    between atoms: C12_17  and  C14_19 
REMARK   11  A    between atoms: C16_22  and  C17_23 
ROOT
HETATM    1  C2  UNL     1      32.371  27.226  40.878  1.00  0.00     0.035 A 
HETATM    2  C3  UNL     1      31.794  28.443  41.262  1.00  0.00     0.032 A 
HETATM    3  C4  UNL     1      30.936  29.134  40.401  1.00  0.00     0.040 A 
HETATM    4  C5  UNL     1      30.658  28.625  39.133  1.00  0.00     0.082 A 
HETATM    5  C12 UNL     1      31.209  27.395  38.751  1.00  0.00     0.045 A 
HETATM    6  C13 UNL     1      32.072  26.707  39.617  1.00  0.00     0.047 A 
ENDROOT
BRANCH   4   7
HETATM    7  O2  UNL     1      29.765  29.242  38.301  1.00  0.00    -0.348 OA
BRANCH   7   8
HETATM    8  C6  UNL     1      30.276  30.391  37.599  1.00  0.00     0.209 C 
BRANCH   8   9
HETATM    9  C7  UNL     1      29.954  31.701  38.339  1.00  0.00     0.170 C 
BRANCH   9  10
HETATM   10  O3  UNL     1      30.914  32.712  37.994  1.00  0.00    -0.392 OA
HETATM   11  H7  UNL     1      31.792  32.342  38.249  1.00  0.00     0.210 HD
ENDBRANCH   9  10
BRANCH   9  12
HETATM   12  C8  UNL     1      28.545  32.230  38.006  1.00  0.00     0.303 C 
BRANCH  12  13
HETATM   13  N2  UNL     1      27.780  32.529  39.224  1.00  0.00     0.089 N 
HETATM   14  H10 UNL     1      28.188  33.372  39.641  1.00  0.00     0.316 HD
BRANCH  13  15
HETATM   15  C9  UNL     1      27.781  31.432  40.195  1.00  0.00     0.212 C 
HETATM   16  C10 UNL     1      27.934  31.924  41.636  1.00  0.00     0.042 C 
HETATM   17  C11 UNL     1      26.455  30.681  40.046  1.00  0.00     0.042 C 
ENDBRANCH  13  15
ENDBRANCH  12  13
ENDBRANCH   9  12
ENDBRANCH   8   9
ENDBRANCH   7   8
ENDBRANCH   4   7
BRANCH   5  18
HETATM   18  C14 UNL     1      30.916  26.820  37.412  1.00  0.00     0.158 C 
HETATM   19  O4  UNL     1      31.413  27.317  36.404  1.00  0.00    -0.293 OA
HETATM   20  C15 UNL     1      30.036  25.599  37.344  1.00  0.00     0.097 C 
ENDBRANCH   5  18
BRANCH   1  21
HETATM   21  N1  UNL     1      33.225  26.598  41.809  1.00  0.00    -0.327 N 
HETATM   22  C1  UNL     1      34.602  26.455  41.728  1.00  0.00     0.222 C 
HETATM   23  O1  UNL     1      35.314  26.834  40.806  1.00  0.00    -0.273 OA
HETATM   24  H1  UNL     1      32.778  26.195  42.623  1.00  0.00     0.169 HD
BRANCH  22  25
HETATM   25  C16 UNL     1      35.157  25.720  42.941  1.00  0.00     0.103 C 
BRANCH  25  26
HETATM   26  C17 UNL     1      36.680  25.620  42.958  1.00  0.00     0.005 C 
HETATM   27  C18 UNL     1      37.177  24.205  42.693  1.00  0.00     0.005 C 
ENDBRANCH  25  26
ENDBRANCH  22  25
ENDBRANCH   1  21
TORSDOF 11
