REMARK  6 active torsions:
REMARK  status: ('A' for Active; 'I' for Inactive)
REMARK    1  A    between atoms: C12_13  and  C15_17 
REMARK    2  A    between atoms: C14_15  and  O2_16 
REMARK    3  A    between atoms: O2_16  and  C22_24 
REMARK    4  A    between atoms: C15_17  and  C16_18 
REMARK    5  A    between atoms: C16_18  and  C17_19 
REMARK    6  A    between atoms: C17_19  and  C18_20 
ROOT
HETATM    1  C1  UNL     1      27.633  31.585  36.673  1.00  0.00    -0.024 C 
HETATM    2  C2  UNL     1      27.460  31.921  38.126  1.00  0.00     0.035 C 
HETATM    3  C3  UNL     1      28.520  31.243  39.012  1.00  0.00     0.032 C 
HETATM    4  C4  UNL     1      28.622  29.745  38.649  1.00  0.00     0.035 C 
HETATM    5  C5  UNL     1      29.123  29.644  37.185  1.00  0.00     0.043 C 
HETATM    6  C6  UNL     1      28.403  30.574  36.233  1.00  0.00    -0.087 C 
HETATM    7  C7  UNL     1      28.600  30.301  34.769  1.00  0.00     0.043 C 
HETATM    8  C8  UNL     1      28.323  31.441  40.529  1.00  0.00     0.065 C 
HETATM    9  O1  UNL     1      29.451  30.879  41.231  1.00  0.00    -0.340 OA
HETATM   10  C9  UNL     1      29.839  29.621  40.861  1.00  0.00     0.079 A 
HETATM   11  C10 UNL     1      29.470  29.000  39.661  1.00  0.00     0.014 A 
HETATM   12  C11 UNL     1      30.657  28.971  41.794  1.00  0.00     0.044 A 
HETATM   13  C12 UNL     1      31.092  27.660  41.583  1.00  0.00    -0.053 A 
HETATM   14  C13 UNL     1      30.688  27.005  40.421  1.00  0.00     0.045 A 
HETATM   15  C14 UNL     1      29.865  27.662  39.497  1.00  0.00     0.089 A 
HETATM   16  C20 UNL     1      28.353  32.936  40.891  1.00  0.00     0.046 C 
HETATM   17  C21 UNL     1      27.026  30.841  41.100  1.00  0.00     0.046 C 
ENDROOT
BRANCH  13  18
HETATM   18  C15 UNL     1      31.980  26.974  42.589  1.00  0.00     0.039 C 
BRANCH  18  19
HETATM   19  C16 UNL     1      32.831  27.979  43.371  1.00  0.00     0.005 C 
BRANCH  19  20
HETATM   20  C17 UNL     1      34.290  27.519  43.451  1.00  0.00    -0.000 C 
BRANCH  20  21
HETATM   21  C18 UNL     1      34.486  26.057  43.048  1.00  0.00    -0.005 C 
HETATM   22  C19 UNL     1      35.753  25.437  43.616  1.00  0.00     0.005 C 
ENDBRANCH  20  21
ENDBRANCH  19  20
ENDBRANCH  18  19
ENDBRANCH  13  18
BRANCH  15  23
HETATM   23  O2  UNL     1      29.480  26.933  38.368  1.00  0.00    -0.279 OA
BRANCH  23  24
HETATM   24  C22 UNL     1      30.553  26.346  37.703  1.00  0.00     0.260 C 
HETATM   25  C23 UNL     1      30.417  24.855  37.798  1.00  0.00     0.126 C 
HETATM   26  O3  UNL     1      31.481  26.916  37.147  1.00  0.00    -0.265 OA
ENDBRANCH  23  24
ENDBRANCH  15  23
TORSDOF 6
