REMARK  3 active torsions:
REMARK  status: ('A' for Active; 'I' for Inactive)
REMARK    1  A    between atoms: N2_5  and  C5_7 
REMARK    2  A    between atoms: C6_8  and  C7_9 
REMARK    3  A    between atoms: C7_9  and  C8_10 
ROOT
HETATM    1  C1  UNL     1      31.535  25.529  41.034  1.00  0.00     0.303 A 
HETATM    2  N1  UNL     1      30.613  26.598  40.803  1.00  0.00     0.101 N 
HETATM    3  C2  UNL     1      30.904  27.626  41.779  1.00  0.00     0.303 A 
HETATM    4  C3  UNL     1      32.337  28.027  41.867  1.00  0.00     0.303 C 
HETATM    5  N2  UNL     1      33.207  26.873  42.041  1.00  0.00     0.096 N 
HETATM    6  C4  UNL     1      32.982  26.019  40.915  1.00  0.00     0.303 C 
HETATM    7  C6  UNL     1      30.526  27.079  39.472  1.00  0.00     0.260 A 
HETATM    8  C9  UNL     1      29.619  28.270  39.493  1.00  0.00    -0.025 A 
HETATM    9  C10 UNL     1      28.417  28.182  40.167  1.00  0.00     0.009 A 
HETATM   10  C11 UNL     1      27.530  29.227  40.222  1.00  0.00     0.001 A 
HETATM   11  C12 UNL     1      27.848  30.400  39.590  1.00  0.00     0.000 A 
HETATM   12  C13 UNL     1      29.037  30.544  38.903  1.00  0.00     0.001 A 
HETATM   13  C14 UNL     1      29.907  29.461  38.870  1.00  0.00     0.009 A 
HETATM   14 CL1  UNL     1      30.796  27.072  40.604  1.00  0.00    -0.145 Cl
HETATM   15 CL2  UNL     1      30.795  27.072  40.603  1.00  0.00    -0.145 Cl
HETATM   16  H33 UNL     1      32.021  27.003  41.210  1.00  0.00     0.145 HD
HETATM   17  H34 UNL     1      32.023  27.003  41.211  1.00  0.00     0.145 HD
ENDROOT
BRANCH   7  18
HETATM   18  C7  UNL     1      30.069  26.093  38.437  1.00  0.00     0.079 C 
BRANCH  18  19
HETATM   19  C8  UNL     1      30.459  26.402  37.051  1.00  0.00    -0.056 A 
HETATM   20  C15 UNL     1      31.361  27.386  36.730  1.00  0.00     0.007 A 
HETATM   21  C16 UNL     1      31.718  27.676  35.422  1.00  0.00     0.001 A 
HETATM   22  C17 UNL     1      31.150  26.953  34.404  1.00  0.00     0.000 A 
HETATM   23  C18 UNL     1      30.246  25.967  34.705  1.00  0.00     0.001 A 
HETATM   24  C19 UNL     1      29.901  25.690  36.009  1.00  0.00     0.007 A 
ENDBRANCH  18  19
ENDBRANCH   7  18
BRANCH   5  25
HETATM   25  C5  UNL     1      34.571  27.277  42.252  1.00  0.00     0.223 C 
HETATM   26  C20 UNL     1      35.017  26.961  43.683  1.00  0.00     0.036 C 
HETATM   27  C21 UNL     1      36.516  27.146  43.734  1.00  0.00     0.002 C 
HETATM   28  C22 UNL     1      37.202  25.971  43.064  1.00  0.00     0.000 C 
HETATM   29  C23 UNL     1      36.352  25.542  41.881  1.00  0.00     0.002 C 
HETATM   30  C24 UNL     1      35.586  26.751  41.323  1.00  0.00     0.036 C 
ENDBRANCH   5  25
TORSDOF 3
