REMARK  2 active torsions:
REMARK  status: ('A' for Active; 'I' for Inactive)
REMARK    1  A    between atoms: N3_8  and  C5_9 
REMARK    2  A    between atoms: C11_19  and  C12_20 
ROOT
HETATM    1  O1  UNL     1      31.592  23.593  39.039  1.00  0.00    -0.273 OA
HETATM    2  C1  UNL     1      31.534  24.771  39.388  1.00  0.00     0.224 C 
HETATM    3  N1  UNL     1      32.377  25.259  40.355  1.00  0.00    -0.311 N 
HETATM    4  C2  UNL     1      32.192  26.522  40.865  1.00  0.00     0.143 A 
HETATM    5  C3  UNL     1      31.160  27.362  40.530  1.00  0.00     0.023 A 
HETATM    6  C4  UNL     1      31.330  28.484  41.382  1.00  0.00     0.062 A 
HETATM    7  N2  UNL     1      32.435  28.374  42.138  1.00  0.00    -0.169 NA
HETATM    8  N3  UNL     1      32.948  27.143  41.834  1.00  0.00    -0.196 N 
HETATM    9  C10 UNL     1      30.462  29.681  41.528  1.00  0.00     0.073 C 
HETATM   10  C11 UNL     1      30.115  26.923  39.557  1.00  0.00     0.068 C 
HETATM   11  C18 UNL     1      30.626  25.768  38.674  1.00  0.00     0.117 C 
HETATM   12  H1  UNL     1      33.078  24.640  40.759  1.00  0.00     0.170 HD
ENDROOT
BRANCH   8  13
HETATM   13  C5  UNL     1      34.102  26.636  42.484  1.00  0.00     0.185 A 
HETATM   14  N4  UNL     1      34.204  25.316  42.806  1.00  0.00    -0.220 NA
HETATM   15  C6  UNL     1      35.333  24.904  43.424  1.00  0.00     0.237 A 
HETATM   16  N5  UNL     1      36.397  25.635  43.776  1.00  0.00    -0.220 NA
HETATM   17  C7  UNL     1      36.275  26.934  43.453  1.00  0.00     0.182 A 
HETATM   18  N6  UNL     1      37.204  27.909  43.693  1.00  0.00    -0.222 NA
HETATM   19  C9  UNL     1      35.164  27.455  42.821  1.00  0.00     0.130 A 
HETATM   20  C8  UNL     1      36.672  29.014  43.217  1.00  0.00     0.210 A 
HETATM   21  N7  UNL     1      35.437  28.789  42.680  1.00  0.00    -0.344 N 
HETATM   22  H4  UNL     1      34.817  29.467  42.250  1.00  0.00     0.167 HD
ENDBRANCH   8  13
BRANCH  10  23
HETATM   23  C12 UNL     1      29.709  28.130  38.722  1.00  0.00    -0.027 A 
HETATM   24  C13 UNL     1      30.482  28.511  37.600  1.00  0.00     0.012 A 
HETATM   25  C14 UNL     1      30.123  29.605  36.812  1.00  0.00     0.043 A 
HETATM   26  C15 UNL     1      28.983  30.328  37.126  1.00  0.00     0.118 A 
HETATM   27  F1  UNL     1      28.639  31.378  36.371  1.00  0.00    -0.206 F 
HETATM   28  C16 UNL     1      28.193  29.978  38.212  1.00  0.00     0.066 A 
HETATM   29  C17 UNL     1      28.550  28.883  39.003  1.00  0.00     0.043 A 
HETATM   30 CL1  UNL     1      27.507  28.515  40.332  1.00  0.00    -0.084 Cl
ENDBRANCH  10  23
TORSDOF 2
