REMARK  17 active torsions:
REMARK  status: ('A' for Active; 'I' for Inactive)
REMARK    1  A    between atoms: C1_1  and  C5_5 
REMARK    2  A    between atoms: C2_2  and  C13_13 
REMARK    3  A    between atoms: C3_3  and  C4_4 
REMARK    4  A    between atoms: C3_3  and  C6_6 
REMARK    5  A    between atoms: C4_4  and  C5_5 
REMARK    6  A    between atoms: C4_4  and  O1_15 
REMARK    7  A    between atoms: C6_6  and  C7_7 
REMARK    8  A    between atoms: C7_7  and  C8_8 
REMARK    9  A    between atoms: C8_8  and  C9_9 
REMARK   10  A    between atoms: C9_9  and  C10_10 
REMARK   11  A    between atoms: C10_10  and  C11_11 
REMARK   12  A    between atoms: C11_11  and  C12_12 
REMARK   13  A    between atoms: C12_12  and  C18_19 
REMARK   14  A    between atoms: C13_13  and  C14_14 
REMARK   15  A    between atoms: C14_14  and  C15_16 
REMARK   16  A    between atoms: C15_16  and  C16_17 
REMARK   17  A    between atoms: C18_19  and  O3_21 
ROOT
HETATM    1  C3  UNL     1      30.770  25.932  39.132  1.00  0.00     0.032 C 
ENDROOT
BRANCH   1   2
HETATM    2  C4  UNL     1      31.629  24.803  39.720  1.00  0.00     0.121 C 
BRANCH   2   3
HETATM    3  C5  UNL     1      31.190  24.362  41.130  1.00  0.00     0.058 C 
BRANCH   3   4
HETATM    4  C1  UNL     1      30.977  25.492  42.107  1.00  0.00    -0.028 C 
HETATM    5  C2  UNL     1      31.922  26.228  42.714  1.00  0.00    -0.031 C 
BRANCH   5   6
HETATM    6  C13 UNL     1      33.412  26.055  42.606  1.00  0.00     0.027 C 
BRANCH   6   7
HETATM    7  C14 UNL     1      34.066  27.015  41.608  1.00  0.00     0.004 C 
BRANCH   7   8
HETATM    8  C15 UNL     1      35.372  26.478  41.013  1.00  0.00    -0.000 C 
BRANCH   8   9
HETATM    9  C16 UNL     1      36.523  26.435  42.022  1.00  0.00    -0.005 C 
HETATM   10  C17 UNL     1      36.641  25.110  42.759  1.00  0.00     0.005 C 
ENDBRANCH   8   9
ENDBRANCH   7   8
ENDBRANCH   6   7
ENDBRANCH   5   6
ENDBRANCH   3   4
ENDBRANCH   2   3
BRANCH   2  11
HETATM   11  O1  UNL     1      31.630  23.683  38.834  1.00  0.00    -0.395 OA
HETATM   12  H31 UNL     1      31.905  24.010  37.959  1.00  0.00     0.210 HD
ENDBRANCH   2  11
ENDBRANCH   1   2
BRANCH   1  13
HETATM   13  C6  UNL     1      31.560  27.186  38.730  1.00  0.00     0.002 C 
BRANCH  13  14
HETATM   14  C7  UNL     1      30.946  28.487  39.257  1.00  0.00     0.000 C 
BRANCH  14  15
HETATM   15  C8  UNL     1      29.697  28.268  40.117  1.00  0.00     0.000 C 
BRANCH  15  16
HETATM   16  C9  UNL     1      28.452  28.976  39.575  1.00  0.00     0.000 C 
BRANCH  16  17
HETATM   17  C10 UNL     1      28.186  30.332  40.237  1.00  0.00     0.001 C 
BRANCH  17  18
HETATM   18  C11 UNL     1      28.250  31.553  39.313  1.00  0.00     0.010 C 
BRANCH  18  19
HETATM   19  C12 UNL     1      29.479  32.430  39.549  1.00  0.00     0.110 C 
BRANCH  19  20
HETATM   20  C18 UNL     1      30.467  32.314  38.419  1.00  0.00     0.139 C 
HETATM   21  O2  UNL     1      30.634  31.368  37.668  1.00  0.00    -0.650 OA
BRANCH  20  22
HETATM   22  O3  UNL     1      31.222  33.424  38.299  1.00  0.00    -0.776 OA
HETATM   23  H34 UNL     1      31.580  33.565  39.201  1.00  0.00     0.167 HD
ENDBRANCH  20  22
ENDBRANCH  19  20
ENDBRANCH  18  19
ENDBRANCH  17  18
ENDBRANCH  16  17
ENDBRANCH  15  16
ENDBRANCH  14  15
ENDBRANCH  13  14
ENDBRANCH   1  13
TORSDOF 17
