REMARK  19 active torsions:
REMARK  status: ('A' for Active; 'I' for Inactive)
REMARK    1  A    between atoms: C1_1  and  C2_2 
REMARK    2  A    between atoms: C1_1  and  C11_12 
REMARK    3  A    between atoms: C2_2  and  C3_3 
REMARK    4  A    between atoms: C3_3  and  C4_4 
REMARK    5  A    between atoms: C4_4  and  C5_5 
REMARK    6  A    between atoms: C5_5  and  C6_6 
REMARK    7  A    between atoms: C6_6  and  C7_7 
REMARK    8  A    between atoms: C7_7  and  C8_8 
REMARK    9  A    between atoms: C8_8  and  C9_9 
REMARK   10  A    between atoms: C9_9  and  C10_10 
REMARK       I    between atoms: C10_10  and  N1_11 
REMARK   11  A    between atoms: N1_11  and  C17_19 
REMARK   12  A    between atoms: C11_12  and  C12_13 
REMARK   13  A    between atoms: C12_13  and  C13_14 
REMARK   14  A    between atoms: C13_14  and  C14_15 
REMARK   15  A    between atoms: C14_15  and  C15_16 
REMARK   16  A    between atoms: C17_19  and  C18_20 
REMARK   17  A    between atoms: C17_19  and  C19_21 
REMARK   18  A    between atoms: C18_20  and  O3_23 
REMARK   19  A    between atoms: C19_21  and  O2_22 
ROOT
HETATM    1  C7  UNL     1      31.205  26.627  38.758  1.00  0.00     0.000 C 
ENDROOT
BRANCH   1   2
HETATM    2  C6  UNL     1      30.928  25.122  38.821  1.00  0.00     0.000 C 
BRANCH   2   3
HETATM    3  C5  UNL     1      31.510  24.388  40.031  1.00  0.00     0.000 C 
BRANCH   3   4
HETATM    4  C4  UNL     1      31.078  24.984  41.375  1.00  0.00     0.000 C 
BRANCH   4   5
HETATM    5  C3  UNL     1      32.298  25.438  42.178  1.00  0.00     0.000 C 
BRANCH   5   6
HETATM    6  C2  UNL     1      32.480  26.956  42.219  1.00  0.00     0.000 C 
BRANCH   6   7
HETATM    7  C1  UNL     1      33.690  27.449  41.424  1.00  0.00     0.000 C 
BRANCH   7   8
HETATM    8  C11 UNL     1      34.659  26.299  41.134  1.00  0.00     0.000 C 
BRANCH   8   9
HETATM    9  C12 UNL     1      36.110  26.709  41.404  1.00  0.00     0.000 C 
BRANCH   9  10
HETATM   10  C13 UNL     1      36.779  25.847  42.480  1.00  0.00     0.000 C 
BRANCH  10  11
HETATM   11  C14 UNL     1      35.970  25.703  43.773  1.00  0.00    -0.000 C 
BRANCH  11  12
HETATM   12  C15 UNL     1      35.643  27.029  44.465  1.00  0.00    -0.005 C 
HETATM   13  C16 UNL     1      36.402  27.176  45.776  1.00  0.00     0.005 C 
ENDBRANCH  11  12
ENDBRANCH  10  11
ENDBRANCH   9  10
ENDBRANCH   8   9
ENDBRANCH   7   8
ENDBRANCH   6   7
ENDBRANCH   5   6
ENDBRANCH   4   5
ENDBRANCH   3   4
ENDBRANCH   2   3
ENDBRANCH   1   2
BRANCH   1  14
HETATM   14  C8  UNL     1      29.974  27.542  38.755  1.00  0.00     0.009 C 
BRANCH  14  15
HETATM   15  C9  UNL     1      29.460  27.944  40.134  1.00  0.00     0.103 C 
BRANCH  15  16
HETATM   16  C10 UNL     1      29.747  29.387  40.498  1.00  0.00     0.218 C 
HETATM   17  N1  UNL     1      29.228  30.277  39.581  1.00  0.00    -0.352 N 
HETATM   18  H19 UNL     1      29.082  29.923  38.644  1.00  0.00     0.163 HD
HETATM   19  O1  UNL     1      30.393  29.734  41.478  1.00  0.00    -0.274 OA
BRANCH  17  20
HETATM   20  C17 UNL     1      29.544  31.711  39.654  1.00  0.00     0.131 C 
BRANCH  20  21
HETATM   21  C18 UNL     1      30.187  32.195  38.347  1.00  0.00     0.191 C 
BRANCH  21  22
HETATM   22  O3  UNL     1      30.973  33.365  38.583  1.00  0.00    -0.399 OA
HETATM   23  H39 UNL     1      30.929  33.545  39.537  1.00  0.00     0.209 HD
ENDBRANCH  21  22
ENDBRANCH  20  21
BRANCH  20  24
HETATM   24  C19 UNL     1      28.258  32.489  39.971  1.00  0.00     0.191 C 
BRANCH  24  25
HETATM   25  O2  UNL     1      27.584  32.847  38.761  1.00  0.00    -0.399 OA
HETATM   26  H38 UNL     1      26.840  33.422  39.023  1.00  0.00     0.209 HD
ENDBRANCH  24  25
ENDBRANCH  20  24
ENDBRANCH  17  20
ENDBRANCH  15  16
ENDBRANCH  14  15
ENDBRANCH   1  14
TORSDOF 19
