REMARK  19 active torsions:
REMARK  status: ('A' for Active; 'I' for Inactive)
REMARK    1  A    between atoms: C1_1  and  C2_2 
REMARK    2  A    between atoms: C1_1  and  C5_5 
REMARK    3  A    between atoms: C3_3  and  C14_16 
REMARK    4  A    between atoms: C4_4  and  C6_6 
REMARK    5  A    between atoms: C6_6  and  C7_7 
REMARK    6  A    between atoms: C8_8  and  C9_9 
REMARK    7  A    between atoms: C9_9  and  C10_10 
REMARK    8  A    between atoms: C10_10  and  C11_11 
REMARK    9  A    between atoms: C11_11  and  C12_12 
REMARK       I    between atoms: C12_12  and  N1_13 
REMARK   10  A    between atoms: N1_13  and  C13_14 
REMARK   11  A    between atoms: C13_14  and  C22_24 
REMARK   12  A    between atoms: C13_14  and  C23_25 
REMARK   13  A    between atoms: C14_16  and  C15_17 
REMARK   14  A    between atoms: C16_18  and  C17_19 
REMARK   15  A    between atoms: C17_19  and  C18_20 
REMARK   16  A    between atoms: C18_20  and  C19_21 
REMARK   17  A    between atoms: C19_21  and  C20_22 
REMARK   18  A    between atoms: C22_24  and  O2_26 
REMARK   19  A    between atoms: C23_25  and  O3_27 
ROOT
HETATM    1  C7  UNL     1      30.910  24.248  38.624  1.00  0.00    -0.027 C 
HETATM    2  C8  UNL     1      30.379  25.133  37.764  1.00  0.00    -0.030 C 
ENDROOT
BRANCH   1   3
HETATM    3  C6  UNL     1      31.870  24.510  39.749  1.00  0.00     0.053 C 
BRANCH   3   4
HETATM    4  C4  UNL     1      31.152  24.574  41.065  1.00  0.00    -0.027 C 
HETATM    5  C5  UNL     1      31.447  25.330  42.136  1.00  0.00    -0.027 C 
BRANCH   5   6
HETATM    6  C1  UNL     1      32.566  26.321  42.291  1.00  0.00     0.053 C 
BRANCH   6   7
HETATM    7  C2  UNL     1      32.149  27.465  43.171  1.00  0.00    -0.027 C 
HETATM    8  C3  UNL     1      32.928  28.435  43.679  1.00  0.00    -0.027 C 
BRANCH   8   9
HETATM    9  C14 UNL     1      34.413  28.598  43.529  1.00  0.00     0.053 C 
BRANCH   9  10
HETATM   10  C15 UNL     1      35.149  27.793  44.562  1.00  0.00    -0.027 C 
HETATM   11  C16 UNL     1      36.474  27.592  44.655  1.00  0.00    -0.030 C 
BRANCH  11  12
HETATM   12  C17 UNL     1      37.535  28.083  43.712  1.00  0.00     0.027 C 
BRANCH  12  13
HETATM   13  C18 UNL     1      38.001  26.966  42.776  1.00  0.00     0.004 C 
BRANCH  13  14
HETATM   14  C19 UNL     1      36.888  25.981  42.405  1.00  0.00    -0.000 C 
BRANCH  14  15
HETATM   15  C20 UNL     1      37.243  24.524  42.705  1.00  0.00    -0.005 C 
HETATM   16  C21 UNL     1      36.357  23.953  43.803  1.00  0.00     0.005 C 
ENDBRANCH  14  15
ENDBRANCH  13  14
ENDBRANCH  12  13
ENDBRANCH  11  12
ENDBRANCH   9  10
ENDBRANCH   8   9
ENDBRANCH   6   7
ENDBRANCH   5   6
ENDBRANCH   3   4
ENDBRANCH   1   3
BRANCH   2  17
HETATM   17  C9  UNL     1      30.630  26.613  37.700  1.00  0.00     0.027 C 
BRANCH  17  18
HETATM   18  C10 UNL     1      29.826  27.357  38.768  1.00  0.00     0.013 C 
BRANCH  18  19
HETATM   19  C11 UNL     1      30.747  28.070  39.755  1.00  0.00     0.103 C 
BRANCH  19  20
HETATM   20  C12 UNL     1      30.299  29.492  40.032  1.00  0.00     0.218 C 
HETATM   21  N1  UNL     1      29.673  30.075  38.947  1.00  0.00    -0.352 N 
HETATM   22  H17 UNL     1      29.910  29.698  38.036  1.00  0.00     0.163 HD
HETATM   23  O1  UNL     1      30.480  30.074  41.095  1.00  0.00    -0.274 OA
BRANCH  21  24
HETATM   24  C13 UNL     1      29.346  31.510  38.958  1.00  0.00     0.131 C 
BRANCH  24  25
HETATM   25  C22 UNL     1      30.462  32.322  38.283  1.00  0.00     0.191 C 
BRANCH  25  26
HETATM   26  O2  UNL     1      30.622  33.580  38.944  1.00  0.00    -0.399 OA
HETATM   27  H38 UNL     1      30.139  34.239  38.409  1.00  0.00     0.209 HD
ENDBRANCH  25  26
ENDBRANCH  24  25
BRANCH  24  28
HETATM   28  C23 UNL     1      27.994  31.729  38.263  1.00  0.00     0.191 C 
BRANCH  28  29
HETATM   29  O3  UNL     1      27.029  32.206  39.205  1.00  0.00    -0.399 OA
HETATM   30  H39 UNL     1      26.218  32.390  38.695  1.00  0.00     0.209 HD
ENDBRANCH  28  29
ENDBRANCH  24  28
ENDBRANCH  21  24
ENDBRANCH  19  20
ENDBRANCH  18  19
ENDBRANCH  17  18
ENDBRANCH   2  17
TORSDOF 19
