REMARK  20 active torsions:
REMARK  status: ('A' for Active; 'I' for Inactive)
REMARK    1  A    between atoms: C1_1  and  C2_2 
REMARK    2  A    between atoms: C1_1  and  C6_6 
REMARK    3  A    between atoms: C2_2  and  C3_3 
REMARK    4  A    between atoms: C3_3  and  C4_4 
REMARK    5  A    between atoms: C4_4  and  C7_7 
REMARK    6  A    between atoms: C5_5  and  C6_6 
REMARK    7  A    between atoms: C5_5  and  C10_10 
REMARK    8  A    between atoms: C7_7  and  C8_8 
REMARK    9  A    between atoms: C8_8  and  C11_11 
REMARK   10  A    between atoms: C9_9  and  C10_10 
REMARK   11  A    between atoms: C11_11  and  C12_12 
REMARK   12  A    between atoms: C12_12  and  C14_14 
REMARK   13  A    between atoms: C14_14  and  C15_15 
REMARK   14  A    between atoms: C15_15  and  C16_16 
REMARK   15  A    between atoms: C16_16  and  O1_17 
REMARK   16  A    between atoms: O1_17  and  P1_18 
REMARK   17  A    between atoms: P1_18  and  O2_19 
REMARK   18  A    between atoms: O2_19  and  C17_22 
REMARK   19  A    between atoms: C17_22  and  C18_23 
REMARK   20  A    between atoms: C18_23  and  N1_24 
ROOT
HETATM    1  C14 UNL     1      30.951  25.819  38.051  1.00  0.00     0.002 C 
ENDROOT
BRANCH   1   2
HETATM    2  C12 UNL     1      30.979  24.522  38.868  1.00  0.00     0.000 C 
BRANCH   2   3
HETATM    3  C11 UNL     1      31.794  24.573  40.164  1.00  0.00     0.000 C 
BRANCH   3   4
HETATM    4  C8  UNL     1      30.928  24.733  41.417  1.00  0.00     0.000 C 
BRANCH   4   5
HETATM    5  C7  UNL     1      31.524  25.771  42.373  1.00  0.00     0.000 C 
BRANCH   5   6
HETATM    6  C4  UNL     1      33.037  25.946  42.208  1.00  0.00     0.000 C 
BRANCH   6   7
HETATM    7  C3  UNL     1      33.479  27.410  42.141  1.00  0.00     0.000 C 
BRANCH   7   8
HETATM    8  C2  UNL     1      33.082  28.215  43.385  1.00  0.00     0.000 C 
BRANCH   8   9
HETATM    9  C1  UNL     1      34.282  28.621  44.246  1.00  0.00     0.000 C 
BRANCH   9  10
HETATM   10  C6  UNL     1      35.607  28.024  43.760  1.00  0.00     0.000 C 
BRANCH  10  11
HETATM   11  C5  UNL     1      36.207  27.010  44.738  1.00  0.00     0.000 C 
BRANCH  11  12
HETATM   12  C10 UNL     1      36.121  25.563  44.241  1.00  0.00    -0.000 C 
BRANCH  12  13
HETATM   13  C9  UNL     1      36.639  25.316  42.822  1.00  0.00    -0.005 C 
HETATM   14  C13 UNL     1      37.289  23.953  42.642  1.00  0.00     0.005 C 
ENDBRANCH  12  13
ENDBRANCH  11  12
ENDBRANCH  10  11
ENDBRANCH   9  10
ENDBRANCH   8   9
ENDBRANCH   7   8
ENDBRANCH   6   7
ENDBRANCH   5   6
ENDBRANCH   4   5
ENDBRANCH   3   4
ENDBRANCH   2   3
ENDBRANCH   1   2
BRANCH   1  15
HETATM   15  C15 UNL     1      30.297  27.021  38.746  1.00  0.00     0.027 C 
BRANCH  15  16
HETATM   16  C16 UNL     1      31.273  28.146  39.082  1.00  0.00     0.181 C 
BRANCH  16  17
HETATM   17  O1  UNL     1      30.578  29.377  39.092  1.00  0.00    -0.290 OA
BRANCH  17  18
HETATM   18  P1  UNL     1      29.780  29.810  40.425  1.00  0.00     0.408 P 
HETATM   19  O3  UNL     1      30.547  29.461  41.673  1.00  0.00    -0.624 OA
HETATM   20  O4  UNL     1      28.325  29.444  40.295  1.00  0.00    -0.624 OA
BRANCH  18  21
HETATM   21  O2  UNL     1      29.839  31.433  40.273  1.00  0.00    -0.288 OA
BRANCH  21  22
HETATM   22  C17 UNL     1      29.664  31.921  38.955  1.00  0.00     0.209 C 
BRANCH  22  23
HETATM   23  C18 UNL     1      28.208  32.286  38.599  1.00  0.00     0.262 C 
BRANCH  23  24
HETATM   24  N1  UNL     1      27.660  31.646  37.285  1.00  0.00    -0.077 N 
HETATM   25  C19 UNL     1      27.339  32.784  36.331  1.00  0.00     0.271 C 
HETATM   26  C20 UNL     1      28.649  30.703  36.647  1.00  0.00     0.271 C 
HETATM   27  C21 UNL     1      26.353  30.899  37.572  1.00  0.00     0.271 C 
ENDBRANCH  23  24
ENDBRANCH  22  23
ENDBRANCH  21  22
ENDBRANCH  18  21
ENDBRANCH  17  18
ENDBRANCH  16  17
ENDBRANCH  15  16
ENDBRANCH   1  15
TORSDOF 20
