MODEL 1
REMARK VINA RESULT:      -6.8      0.000      0.000
REMARK  6 active torsions:
REMARK  status: ('A' for Active; 'I' for Inactive)
REMARK    1  A    between atoms: S_2  and  N_8 
REMARK    2  A    between atoms: S_2  and  C_11 
REMARK    3  A    between atoms: O_6  and  C_20 
REMARK    4  A    between atoms: N_8  and  C_17 
REMARK    5  A    between atoms: N_10  and  C_21 
REMARK       I    between atoms: N_10  and  C_23 
REMARK    6  A    between atoms: C_17  and  C_20 
ROOT
HETATM    1 CL   UNL     1      51.647   1.736  99.538  1.00  0.00    -0.083 Cl
HETATM    2  S   UNL     1      50.345   2.606 106.327  1.00  0.00    -0.049 SA
HETATM    3  N   UNL     1      49.005   0.593 107.240  1.00  0.00    -0.228 NA
HETATM    4  C   UNL     1      49.887   2.165 101.585  1.00  0.00     0.102 A 
HETATM    5  C   UNL     1      50.335   1.453 103.850  1.00  0.00    -0.015 A 
HETATM    6  C   UNL     1      49.498   2.069 102.921  1.00  0.00     0.040 A 
HETATM    7  C   UNL     1      49.932   1.354 105.230  1.00  0.00     0.043 A 
HETATM    8  C   UNL     1      51.116   1.643 101.178  1.00  0.00     0.057 A 
HETATM    9  C   UNL     1      51.564   0.932 103.443  1.00  0.00     0.014 A 
HETATM   10  C   UNL     1      49.224   0.373 105.893  1.00  0.00     0.051 A 
HETATM   11  C   UNL     1      51.954   1.026 102.108  1.00  0.00     0.026 A 
HETATM   12  C   UNL     1      49.551   1.739 107.578  1.00  0.00     0.174 A 
HETATM   13  C   UNL     1      48.688  -0.869 105.300  1.00  0.00     0.072 C 
ENDROOT
BRANCH   4  14
HETATM   14  S   UNL     1      48.796   2.952 100.463  1.00  0.00     0.260 S 
HETATM   15  O   UNL     1      49.406   4.198 100.022  1.00  0.00    -0.200 OA
HETATM   16  O   UNL     1      48.392   1.962  99.476  1.00  0.00    -0.200 OA
BRANCH  14  17
HETATM   17  N   UNL     1      47.456   3.316 101.457  1.00  0.00    -0.313 N 
HETATM   18  H   UNL     1      47.348   4.285 101.782  1.00  0.00     0.172 HD
BRANCH  17  19
HETATM   19  C   UNL     1      46.213   2.543 101.327  1.00  0.00     0.158 C 
BRANCH  19  20
HETATM   20  C   UNL     1      45.349   3.145 100.235  1.00  0.00     0.184 C 
BRANCH  20  21
HETATM   21  O   UNL     1      45.428   4.564 100.298  1.00  0.00    -0.399 OA
HETATM   22  H   UNL     1      46.084   4.783 100.981  1.00  0.00     0.209 HD
ENDBRANCH  20  21
ENDBRANCH  19  20
ENDBRANCH  17  19
ENDBRANCH  14  17
ENDBRANCH   4  14
BRANCH  12  23
HETATM   23  N   UNL     1      49.565   2.328 108.815  1.00  0.00    -0.306 N 
HETATM   24  C   UNL     1      50.250   1.877 109.955  1.00  0.00     0.219 C 
HETATM   25  O   UNL     1      50.959   0.882 110.060  1.00  0.00    -0.274 OA
HETATM   26  C   UNL     1      50.029   2.790 111.136  1.00  0.00     0.117 C 
HETATM   27  H   UNL     1      49.014   3.180 108.891  1.00  0.00     0.171 HD
ENDBRANCH  12  23
TORSDOF 6
ENDMDL
MODEL 2
REMARK VINA RESULT:      -6.4      1.538      2.223
REMARK  6 active torsions:
REMARK  status: ('A' for Active; 'I' for Inactive)
REMARK    1  A    between atoms: S_2  and  N_8 
REMARK    2  A    between atoms: S_2  and  C_11 
REMARK    3  A    between atoms: O_6  and  C_20 
REMARK    4  A    between atoms: N_8  and  C_17 
REMARK    5  A    between atoms: N_10  and  C_21 
REMARK       I    between atoms: N_10  and  C_23 
REMARK    6  A    between atoms: C_17  and  C_20 
ROOT
HETATM    1 CL   UNL     1      51.394   1.534  99.628  1.00  0.00    -0.083 Cl
HETATM    2  S   UNL     1      50.266   2.492 106.435  1.00  0.00    -0.049 SA
HETATM    3  N   UNL     1      49.021   0.454 107.425  1.00  0.00    -0.228 NA
HETATM    4  C   UNL     1      49.683   1.944 101.718  1.00  0.00     0.102 A 
HETATM    5  C   UNL     1      50.221   1.292 103.981  1.00  0.00    -0.015 A 
HETATM    6  C   UNL     1      49.336   1.862 103.067  1.00  0.00     0.040 A 
HETATM    7  C   UNL     1      49.862   1.207 105.375  1.00  0.00     0.043 A 
HETATM    8  C   UNL     1      50.916   1.455 101.284  1.00  0.00     0.057 A 
HETATM    9  C   UNL     1      51.454   0.803 103.547  1.00  0.00     0.014 A 
HETATM   10  C   UNL     1      49.207   0.216 106.077  1.00  0.00     0.051 A 
HETATM   11  C   UNL     1      51.800   0.885 102.199  1.00  0.00     0.026 A 
HETATM   12  C   UNL     1      49.539   1.625 107.725  1.00  0.00     0.174 A 
HETATM   13  C   UNL     1      48.696  -1.055 105.524  1.00  0.00     0.072 C 
ENDROOT
BRANCH   4  14
HETATM   14  S   UNL     1      48.533   2.673 100.615  1.00  0.00     0.260 S 
HETATM   15  O   UNL     1      48.313   1.758  99.506  1.00  0.00    -0.200 OA
HETATM   16  O   UNL     1      47.400   3.132 101.403  1.00  0.00    -0.200 OA
BRANCH  14  17
HETATM   17  N   UNL     1      49.393   4.034 100.044  1.00  0.00    -0.313 N 
HETATM   18  H   UNL     1      48.995   4.558  99.255  1.00  0.00     0.172 HD
BRANCH  17  19
HETATM   19  C   UNL     1      50.239   4.807 100.964  1.00  0.00     0.158 C 
BRANCH  19  20
HETATM   20  C   UNL     1      50.792   6.025 100.246  1.00  0.00     0.184 C 
BRANCH  20  21
HETATM   21  O   UNL     1      51.007   7.071 101.185  1.00  0.00    -0.399 OA
HETATM   22  H   UNL     1      51.324   7.842 100.686  1.00  0.00     0.209 HD
ENDBRANCH  20  21
ENDBRANCH  19  20
ENDBRANCH  17  19
ENDBRANCH  14  17
ENDBRANCH   4  14
BRANCH  12  23
HETATM   23  N   UNL     1      49.570   2.238 108.950  1.00  0.00    -0.306 N 
HETATM   24  C   UNL     1      50.420   1.931 110.025  1.00  0.00     0.219 C 
HETATM   25  O   UNL     1      51.289   1.066 110.072  1.00  0.00    -0.274 OA
HETATM   26  C   UNL     1      50.162   2.824 111.213  1.00  0.00     0.117 C 
HETATM   27  H   UNL     1      48.897   2.991 109.071  1.00  0.00     0.171 HD
ENDBRANCH  12  23
TORSDOF 6
ENDMDL
MODEL 3
REMARK VINA RESULT:      -6.1      4.054      5.063
REMARK  6 active torsions:
REMARK  status: ('A' for Active; 'I' for Inactive)
REMARK    1  A    between atoms: S_2  and  N_8 
REMARK    2  A    between atoms: S_2  and  C_11 
REMARK    3  A    between atoms: O_6  and  C_20 
REMARK    4  A    between atoms: N_8  and  C_17 
REMARK    5  A    between atoms: N_10  and  C_21 
REMARK       I    between atoms: N_10  and  C_23 
REMARK    6  A    between atoms: C_17  and  C_20 
ROOT
HETATM    1 CL   UNL     1      46.221  -5.234 102.042  1.00  0.00    -0.083 Cl
HETATM    2  S   UNL     1      49.435  -0.538 106.061  1.00  0.00    -0.049 SA
HETATM    3  N   UNL     1      48.484  -0.625 108.463  1.00  0.00    -0.228 NA
HETATM    4  C   UNL     1      46.171  -2.927 103.506  1.00  0.00     0.102 A 
HETATM    5  C   UNL     1      47.698  -2.517 105.332  1.00  0.00    -0.015 A 
HETATM    6  C   UNL     1      46.640  -2.100 104.526  1.00  0.00     0.040 A 
HETATM    7  C   UNL     1      48.182  -1.662 106.387  1.00  0.00     0.043 A 
HETATM    8  C   UNL     1      46.762  -4.173 103.292  1.00  0.00     0.057 A 
HETATM    9  C   UNL     1      48.289  -3.763 105.118  1.00  0.00     0.014 A 
HETATM   10  C   UNL     1      47.806  -1.564 107.711  1.00  0.00     0.051 A 
HETATM   11  C   UNL     1      47.820  -4.591 104.098  1.00  0.00     0.026 A 
HETATM   12  C   UNL     1      49.367  -0.023 107.697  1.00  0.00     0.174 A 
HETATM   13  C   UNL     1      46.759  -2.361 108.382  1.00  0.00     0.072 C 
ENDROOT
BRANCH   4  14
HETATM   14  S   UNL     1      44.841  -2.349 102.522  1.00  0.00     0.260 S 
HETATM   15  O   UNL     1      45.240  -2.408 101.125  1.00  0.00    -0.200 OA
HETATM   16  O   UNL     1      43.640  -3.046 102.957  1.00  0.00    -0.200 OA
BRANCH  14  17
HETATM   17  N   UNL     1      44.728  -0.711 102.994  1.00  0.00    -0.313 N 
HETATM   18  H   UNL     1      44.762  -0.497 103.998  1.00  0.00     0.172 HD
BRANCH  17  19
HETATM   19  C   UNL     1      45.213   0.347 102.097  1.00  0.00     0.158 C 
BRANCH  19  20
HETATM   20  C   UNL     1      46.144   1.272 102.857  1.00  0.00     0.184 C 
BRANCH  20  21
HETATM   21  O   UNL     1      45.666   2.608 102.761  1.00  0.00    -0.399 OA
HETATM   22  H   UNL     1      44.709   2.557 102.601  1.00  0.00     0.209 HD
ENDBRANCH  20  21
ENDBRANCH  19  20
ENDBRANCH  17  19
ENDBRANCH  14  17
ENDBRANCH   4  14
BRANCH  12  23
HETATM   23  N   UNL     1      50.244   0.969 108.048  1.00  0.00    -0.306 N 
HETATM   24  C   UNL     1      50.744   1.233 109.334  1.00  0.00     0.219 C 
HETATM   25  O   UNL     1      50.496   0.635 110.375  1.00  0.00    -0.274 OA
HETATM   26  C   UNL     1      51.692   2.408 109.332  1.00  0.00     0.117 C 
HETATM   27  H   UNL     1      50.550   1.563 107.282  1.00  0.00     0.171 HD
ENDBRANCH  12  23
TORSDOF 6
ENDMDL
MODEL 4
REMARK VINA RESULT:      -6.1      4.504      8.063
REMARK  6 active torsions:
REMARK  status: ('A' for Active; 'I' for Inactive)
REMARK    1  A    between atoms: S_2  and  N_8 
REMARK    2  A    between atoms: S_2  and  C_11 
REMARK    3  A    between atoms: O_6  and  C_20 
REMARK    4  A    between atoms: N_8  and  C_17 
REMARK    5  A    between atoms: N_10  and  C_21 
REMARK       I    between atoms: N_10  and  C_23 
REMARK    6  A    between atoms: C_17  and  C_20 
ROOT
HETATM    1 CL   UNL     1      47.951  -1.848 108.567  1.00  0.00    -0.083 Cl
HETATM    2  S   UNL     1      51.229   0.637 102.945  1.00  0.00    -0.049 SA
HETATM    3  N   UNL     1      49.597   2.037 101.511  1.00  0.00    -0.228 NA
HETATM    4  C   UNL     1      48.317  -1.794 105.860  1.00  0.00     0.102 A 
HETATM    5  C   UNL     1      49.205   0.137 104.710  1.00  0.00    -0.015 A 
HETATM    6  C   UNL     1      48.709  -1.166 104.677  1.00  0.00     0.040 A 
HETATM    7  C   UNL     1      49.610   0.785 103.488  1.00  0.00     0.043 A 
HETATM    8  C   UNL     1      48.421  -1.117 107.075  1.00  0.00     0.057 A 
HETATM    9  C   UNL     1      49.309   0.813 105.926  1.00  0.00     0.014 A 
HETATM   10  C   UNL     1      48.894   1.561 102.601  1.00  0.00     0.051 A 
HETATM   11  C   UNL     1      48.916   0.186 107.108  1.00  0.00     0.026 A 
HETATM   12  C   UNL     1      50.839   1.612 101.588  1.00  0.00     0.174 A 
HETATM   13  C   UNL     1      47.465   1.923 102.712  1.00  0.00     0.072 C 
ENDROOT
BRANCH   4  14
HETATM   14  S   UNL     1      47.704  -3.433 105.759  1.00  0.00     0.260 S 
HETATM   15  O   UNL     1      46.370  -3.464 106.338  1.00  0.00    -0.200 OA
HETATM   16  O   UNL     1      47.906  -3.892 104.393  1.00  0.00    -0.200 OA
BRANCH  14  17
HETATM   17  N   UNL     1      48.771  -4.281 106.788  1.00  0.00    -0.313 N 
HETATM   18  H   UNL     1      49.362  -3.733 107.425  1.00  0.00     0.172 HD
BRANCH  17  19
HETATM   19  C   UNL     1      48.433  -5.639 107.237  1.00  0.00     0.158 C 
BRANCH  19  20
HETATM   20  C   UNL     1      47.959  -5.596 108.678  1.00  0.00     0.184 C 
BRANCH  20  21
HETATM   21  O   UNL     1      46.590  -5.213 108.714  1.00  0.00    -0.399 OA
HETATM   22  H   UNL     1      46.426  -4.664 107.929  1.00  0.00     0.209 HD
ENDBRANCH  20  21
ENDBRANCH  19  20
ENDBRANCH  17  19
ENDBRANCH  14  17
ENDBRANCH   4  14
BRANCH  12  23
HETATM   23  N   UNL     1      51.863   1.856 100.712  1.00  0.00    -0.306 N 
HETATM   24  C   UNL     1      52.264   3.106 100.213  1.00  0.00     0.219 C 
HETATM   25  O   UNL     1      51.780   4.206 100.462  1.00  0.00    -0.274 OA
HETATM   26  C   UNL     1      53.436   2.980  99.269  1.00  0.00     0.117 C 
HETATM   27  H   UNL     1      52.372   1.032 100.406  1.00  0.00     0.171 HD
ENDBRANCH  12  23
TORSDOF 6
ENDMDL
MODEL 5
REMARK VINA RESULT:      -6.0      3.499      5.804
REMARK  6 active torsions:
REMARK  status: ('A' for Active; 'I' for Inactive)
REMARK    1  A    between atoms: S_2  and  N_8 
REMARK    2  A    between atoms: S_2  and  C_11 
REMARK    3  A    between atoms: O_6  and  C_20 
REMARK    4  A    between atoms: N_8  and  C_17 
REMARK    5  A    between atoms: N_10  and  C_21 
REMARK       I    between atoms: N_10  and  C_23 
REMARK    6  A    between atoms: C_17  and  C_20 
ROOT
HETATM    1 CL   UNL     1      51.159   2.932 102.115  1.00  0.00    -0.083 Cl
HETATM    2  S   UNL     1      49.093  -1.953 106.632  1.00  0.00    -0.049 SA
HETATM    3  N   UNL     1      46.518  -1.922 106.859  1.00  0.00    -0.228 NA
HETATM    4  C   UNL     1      50.056   2.227 104.514  1.00  0.00     0.102 A 
HETATM    5  C   UNL     1      48.933   0.115 104.854  1.00  0.00    -0.015 A 
HETATM    6  C   UNL     1      49.367   1.345 105.346  1.00  0.00     0.040 A 
HETATM    7  C   UNL     1      48.221  -0.796 105.715  1.00  0.00     0.043 A 
HETATM    8  C   UNL     1      50.310   1.878 103.187  1.00  0.00     0.057 A 
HETATM    9  C   UNL     1      49.188  -0.234 103.528  1.00  0.00     0.014 A 
HETATM   10  C   UNL     1      46.871  -0.930 105.964  1.00  0.00     0.051 A 
HETATM   11  C   UNL     1      49.876   0.648 102.694  1.00  0.00     0.026 A 
HETATM   12  C   UNL     1      47.609  -2.526 107.275  1.00  0.00     0.174 A 
HETATM   13  C   UNL     1      45.789  -0.120 105.368  1.00  0.00     0.072 C 
ENDROOT
BRANCH   4  14
HETATM   14  S   UNL     1      50.579   3.758 105.188  1.00  0.00     0.260 S 
HETATM   15  O   UNL     1      52.030   3.825 105.109  1.00  0.00    -0.200 OA
HETATM   16  O   UNL     1      49.777   4.804 104.574  1.00  0.00    -0.200 OA
BRANCH  14  17
HETATM   17  N   UNL     1      50.124   3.606 106.827  1.00  0.00    -0.313 N 
HETATM   18  H   UNL     1      49.305   3.025 107.046  1.00  0.00     0.172 HD
BRANCH  17  19
HETATM   19  C   UNL     1      51.140   3.705 107.884  1.00  0.00     0.158 C 
BRANCH  19  20
HETATM   20  C   UNL     1      50.675   2.942 109.111  1.00  0.00     0.184 C 
BRANCH  20  21
HETATM   21  O   UNL     1      51.614   3.123 110.164  1.00  0.00    -0.399 OA
HETATM   22  H   UNL     1      52.489   3.222 109.752  1.00  0.00     0.209 HD
ENDBRANCH  20  21
ENDBRANCH  19  20
ENDBRANCH  17  19
ENDBRANCH  14  17
ENDBRANCH   4  14
BRANCH  12  23
HETATM   23  N   UNL     1      47.703  -3.563 108.165  1.00  0.00    -0.306 N 
HETATM   24  C   UNL     1      47.815  -4.929 107.857  1.00  0.00     0.219 C 
HETATM   25  O   UNL     1      47.849  -5.449 106.746  1.00  0.00    -0.274 OA
HETATM   26  C   UNL     1      47.899  -5.777 109.103  1.00  0.00     0.117 C 
HETATM   27  H   UNL     1      47.689  -3.292 109.145  1.00  0.00     0.171 HD
ENDBRANCH  12  23
TORSDOF 6
ENDMDL
MODEL 6
REMARK VINA RESULT:      -6.0      4.471      7.392
REMARK  6 active torsions:
REMARK  status: ('A' for Active; 'I' for Inactive)
REMARK    1  A    between atoms: S_2  and  N_8 
REMARK    2  A    between atoms: S_2  and  C_11 
REMARK    3  A    between atoms: O_6  and  C_20 
REMARK    4  A    between atoms: N_8  and  C_17 
REMARK    5  A    between atoms: N_10  and  C_21 
REMARK       I    between atoms: N_10  and  C_23 
REMARK    6  A    between atoms: C_17  and  C_20 
ROOT
HETATM    1 CL   UNL     1      47.680  -2.406 107.856  1.00  0.00    -0.083 Cl
HETATM    2  S   UNL     1      51.339   1.040 103.032  1.00  0.00    -0.049 SA
HETATM    3  N   UNL     1      49.807   2.693 101.767  1.00  0.00    -0.228 NA
HETATM    4  C   UNL     1      48.237  -1.859 105.238  1.00  0.00     0.102 A 
HETATM    5  C   UNL     1      49.197   0.242 104.528  1.00  0.00    -0.015 A 
HETATM    6  C   UNL     1      48.710  -1.029 104.221  1.00  0.00     0.040 A 
HETATM    7  C   UNL     1      49.685   1.100 103.477  1.00  0.00     0.043 A 
HETATM    8  C   UNL     1      48.252  -1.418 106.561  1.00  0.00     0.057 A 
HETATM    9  C   UNL     1      49.211   0.682 105.851  1.00  0.00     0.014 A 
HETATM   10  C   UNL     1      49.030   2.032 102.699  1.00  0.00     0.051 A 
HETATM   11  C   UNL     1      48.738  -0.147 106.868  1.00  0.00     0.026 A 
HETATM   12  C   UNL     1      51.042   2.250 101.853  1.00  0.00     0.174 A 
HETATM   13  C   UNL     1      47.596   2.379 102.774  1.00  0.00     0.072 C 
ENDROOT
BRANCH   4  14
HETATM   14  S   UNL     1      47.640  -3.446 104.794  1.00  0.00     0.260 S 
HETATM   15  O   UNL     1      48.477  -4.449 105.434  1.00  0.00    -0.200 OA
HETATM   16  O   UNL     1      46.204  -3.454 105.025  1.00  0.00    -0.200 OA
BRANCH  14  17
HETATM   17  N   UNL     1      47.927  -3.483 103.111  1.00  0.00    -0.313 N 
HETATM   18  H   UNL     1      48.748  -2.980 102.752  1.00  0.00     0.172 HD
BRANCH  17  19
HETATM   19  C   UNL     1      47.485  -4.636 102.316  1.00  0.00     0.158 C 
BRANCH  19  20
HETATM   20  C   UNL     1      48.572  -5.024 101.332  1.00  0.00     0.184 C 
BRANCH  20  21
HETATM   21  O   UNL     1      48.947  -3.885 100.568  1.00  0.00    -0.399 OA
HETATM   22  H   UNL     1      48.186  -3.653 100.009  1.00  0.00     0.209 HD
ENDBRANCH  20  21
ENDBRANCH  19  20
ENDBRANCH  17  19
ENDBRANCH  14  17
ENDBRANCH   4  14
BRANCH  12  23
HETATM   23  N   UNL     1      52.125   2.642 101.111  1.00  0.00    -0.306 N 
HETATM   24  C   UNL     1      52.310   2.460  99.731  1.00  0.00     0.219 C 
HETATM   25  O   UNL     1      51.547   1.924  98.934  1.00  0.00    -0.274 OA
HETATM   26  C   UNL     1      53.630   3.027  99.266  1.00  0.00     0.117 C 
HETATM   27  H   UNL     1      52.858   3.110 101.636  1.00  0.00     0.171 HD
ENDBRANCH  12  23
TORSDOF 6
ENDMDL
MODEL 7
REMARK VINA RESULT:      -6.0      3.719      7.067
REMARK  6 active torsions:
REMARK  status: ('A' for Active; 'I' for Inactive)
REMARK    1  A    between atoms: S_2  and  N_8 
REMARK    2  A    between atoms: S_2  and  C_11 
REMARK    3  A    between atoms: O_6  and  C_20 
REMARK    4  A    between atoms: N_8  and  C_17 
REMARK    5  A    between atoms: N_10  and  C_21 
REMARK       I    between atoms: N_10  and  C_23 
REMARK    6  A    between atoms: C_17  and  C_20 
ROOT
HETATM    1 CL   UNL     1      48.989  -0.120 109.214  1.00  0.00    -0.083 Cl
HETATM    2  S   UNL     1      51.693   1.818 103.094  1.00  0.00    -0.049 SA
HETATM    3  N   UNL     1      50.100   3.467 101.900  1.00  0.00    -0.228 NA
HETATM    4  C   UNL     1      48.926  -0.118 106.482  1.00  0.00     0.102 A 
HETATM    5  C   UNL     1      49.919   1.646 105.164  1.00  0.00    -0.015 A 
HETATM    6  C   UNL     1      49.222   0.441 105.239  1.00  0.00     0.040 A 
HETATM    7  C   UNL     1      50.224   2.224 103.879  1.00  0.00     0.043 A 
HETATM    8  C   UNL     1      49.328   0.529 107.651  1.00  0.00     0.057 A 
HETATM    9  C   UNL     1      50.321   2.293 106.333  1.00  0.00     0.014 A 
HETATM   10  C   UNL     1      49.511   3.109 103.097  1.00  0.00     0.051 A 
HETATM   11  C   UNL     1      50.025   1.735 107.576  1.00  0.00     0.026 A 
HETATM   12  C   UNL     1      51.254   2.847 101.792  1.00  0.00     0.174 A 
HETATM   13  C   UNL     1      48.195   3.696 103.422  1.00  0.00     0.072 C 
ENDROOT
BRANCH   4  14
HETATM   14  S   UNL     1      48.051  -1.636 106.516  1.00  0.00     0.260 S 
HETATM   15  O   UNL     1      48.973  -2.693 106.900  1.00  0.00    -0.200 OA
HETATM   16  O   UNL     1      46.837  -1.424 107.289  1.00  0.00    -0.200 OA
BRANCH  14  17
HETATM   17  N   UNL     1      47.627  -1.845 104.875  1.00  0.00    -0.313 N 
HETATM   18  H   UNL     1      48.209  -2.470 104.304  1.00  0.00     0.172 HD
BRANCH  17  19
HETATM   19  C   UNL     1      46.224  -1.718 104.456  1.00  0.00     0.158 C 
BRANCH  19  20
HETATM   20  C   UNL     1      45.918  -0.269 104.129  1.00  0.00     0.184 C 
BRANCH  20  21
HETATM   21  O   UNL     1      44.621  -0.177 103.554  1.00  0.00    -0.399 OA
HETATM   22  H   UNL     1      44.017  -0.671 104.133  1.00  0.00     0.209 HD
ENDBRANCH  20  21
ENDBRANCH  19  20
ENDBRANCH  17  19
ENDBRANCH  14  17
ENDBRANCH   4  14
BRANCH  12  23
HETATM   23  N   UNL     1      52.153   2.924 100.761  1.00  0.00    -0.306 N 
HETATM   24  C   UNL     1      51.992   2.412  99.463  1.00  0.00     0.219 C 
HETATM   25  O   UNL     1      51.027   1.806  99.009  1.00  0.00    -0.274 OA
HETATM   26  C   UNL     1      53.198   2.693  98.599  1.00  0.00     0.117 C 
HETATM   27  H   UNL     1      53.020   3.407 100.983  1.00  0.00     0.171 HD
ENDBRANCH  12  23
TORSDOF 6
ENDMDL
MODEL 8
REMARK VINA RESULT:      -5.9      4.635      7.668
REMARK  6 active torsions:
REMARK  status: ('A' for Active; 'I' for Inactive)
REMARK    1  A    between atoms: S_2  and  N_8 
REMARK    2  A    between atoms: S_2  and  C_11 
REMARK    3  A    between atoms: O_6  and  C_20 
REMARK    4  A    between atoms: N_8  and  C_17 
REMARK    5  A    between atoms: N_10  and  C_21 
REMARK       I    between atoms: N_10  and  C_23 
REMARK    6  A    between atoms: C_17  and  C_20 
ROOT
HETATM    1 CL   UNL     1      47.992  -1.903 108.621  1.00  0.00    -0.083 Cl
HETATM    2  S   UNL     1      51.112   0.546 102.894  1.00  0.00    -0.049 SA
HETATM    3  N   UNL     1      49.425   1.889 101.468  1.00  0.00    -0.228 NA
HETATM    4  C   UNL     1      48.304  -1.889 105.906  1.00  0.00     0.102 A 
HETATM    5  C   UNL     1      49.132   0.038 104.707  1.00  0.00    -0.015 A 
HETATM    6  C   UNL     1      48.661  -1.275 104.706  1.00  0.00     0.040 A 
HETATM    7  C   UNL     1      49.501   0.673 103.466  1.00  0.00     0.043 A 
HETATM    8  C   UNL     1      48.418  -1.189 107.108  1.00  0.00     0.057 A 
HETATM    9  C   UNL     1      49.246   0.737 105.908  1.00  0.00     0.014 A 
HETATM   10  C   UNL     1      48.752   1.420 102.580  1.00  0.00     0.051 A 
HETATM   11  C   UNL     1      48.889   0.123 107.109  1.00  0.00     0.026 A 
HETATM   12  C   UNL     1      50.676   1.490 101.529  1.00  0.00     0.174 A 
HETATM   13  C   UNL     1      47.320   1.756 102.713  1.00  0.00     0.072 C 
ENDROOT
BRANCH   4  14
HETATM   14  S   UNL     1      47.721  -3.540 105.845  1.00  0.00     0.260 S 
HETATM   15  O   UNL     1      48.710  -4.403 106.473  1.00  0.00    -0.200 OA
HETATM   16  O   UNL     1      46.352  -3.540 106.337  1.00  0.00    -0.200 OA
BRANCH  14  17
HETATM   17  N   UNL     1      47.703  -3.855 104.167  1.00  0.00    -0.313 N 
HETATM   18  H   UNL     1      48.577  -4.168 103.726  1.00  0.00     0.172 HD
BRANCH  17  19
HETATM   19  C   UNL     1      46.464  -4.304 103.517  1.00  0.00     0.158 C 
BRANCH  19  20
HETATM   20  C   UNL     1      46.201  -5.757 103.868  1.00  0.00     0.184 C 
BRANCH  20  21
HETATM   21  O   UNL     1      45.097  -5.836 104.761  1.00  0.00    -0.399 OA
HETATM   22  H   UNL     1      44.590  -6.629 104.518  1.00  0.00     0.209 HD
ENDBRANCH  20  21
ENDBRANCH  19  20
ENDBRANCH  17  19
ENDBRANCH  14  17
ENDBRANCH   4  14
BRANCH  12  23
HETATM   23  N   UNL     1      51.679   1.738 100.629  1.00  0.00    -0.306 N 
HETATM   24  C   UNL     1      52.150   2.996 100.219  1.00  0.00     0.219 C 
HETATM   25  O   UNL     1      51.759   4.100 100.583  1.00  0.00    -0.274 OA
HETATM   26  C   UNL     1      53.269   2.872  99.213  1.00  0.00     0.117 C 
HETATM   27  H   UNL     1      52.112   0.910 100.229  1.00  0.00     0.171 HD
ENDBRANCH  12  23
TORSDOF 6
ENDMDL
MODEL 9
REMARK VINA RESULT:      -5.8      3.712      7.553
REMARK  6 active torsions:
REMARK  status: ('A' for Active; 'I' for Inactive)
REMARK    1  A    between atoms: S_2  and  N_8 
REMARK    2  A    between atoms: S_2  and  C_11 
REMARK    3  A    between atoms: O_6  and  C_20 
REMARK    4  A    between atoms: N_8  and  C_17 
REMARK    5  A    between atoms: N_10  and  C_21 
REMARK       I    between atoms: N_10  and  C_23 
REMARK    6  A    between atoms: C_17  and  C_20 
ROOT
HETATM    1 CL   UNL     1      49.324   1.146 109.560  1.00  0.00    -0.083 Cl
HETATM    2  S   UNL     1      51.353   1.477 102.904  1.00  0.00    -0.049 SA
HETATM    3  N   UNL     1      49.628   2.809 101.514  1.00  0.00    -0.228 NA
HETATM    4  C   UNL     1      48.975   0.478 106.933  1.00  0.00     0.102 A 
HETATM    5  C   UNL     1      49.808   1.849 105.126  1.00  0.00    -0.015 A 
HETATM    6  C   UNL     1      49.134   0.710 105.567  1.00  0.00     0.040 A 
HETATM    7  C   UNL     1      49.971   2.088 103.713  1.00  0.00     0.043 A 
HETATM    8  C   UNL     1      49.491   1.386 107.859  1.00  0.00     0.057 A 
HETATM    9  C   UNL     1      50.324   2.755 106.051  1.00  0.00     0.014 A 
HETATM   10  C   UNL     1      49.171   2.765 102.817  1.00  0.00     0.051 A 
HETATM   11  C   UNL     1      50.165   2.525 107.417  1.00  0.00     0.026 A 
HETATM   12  C   UNL     1      50.770   2.162 101.442  1.00  0.00     0.174 A 
HETATM   13  C   UNL     1      47.891   3.437 103.123  1.00  0.00     0.072 C 
ENDROOT
BRANCH   4  14
HETATM   14  S   UNL     1      48.122  -0.970 107.430  1.00  0.00     0.260 S 
HETATM   15  O   UNL     1      48.345  -1.172 108.853  1.00  0.00    -0.200 OA
HETATM   16  O   UNL     1      46.763  -0.873 106.922  1.00  0.00    -0.200 OA
BRANCH  14  17
HETATM   17  N   UNL     1      48.947  -2.189 106.564  1.00  0.00    -0.313 N 
HETATM   18  H   UNL     1      49.975  -2.175 106.575  1.00  0.00     0.172 HD
BRANCH  17  19
HETATM   19  C   UNL     1      48.327  -3.510 106.385  1.00  0.00     0.158 C 
BRANCH  19  20
HETATM   20  C   UNL     1      47.714  -3.601 105.000  1.00  0.00     0.184 C 
BRANCH  20  21
HETATM   21  O   UNL     1      46.368  -3.147 105.048  1.00  0.00    -0.399 OA
HETATM   22  H   UNL     1      45.947  -3.412 104.213  1.00  0.00     0.209 HD
ENDBRANCH  20  21
ENDBRANCH  19  20
ENDBRANCH  17  19
ENDBRANCH  14  17
ENDBRANCH   4  14
BRANCH  12  23
HETATM   23  N   UNL     1      51.555   1.969 100.336  1.00  0.00    -0.306 N 
HETATM   24  C   UNL     1      52.289   2.946  99.644  1.00  0.00     0.219 C 
HETATM   25  O   UNL     1      52.367   4.144  99.893  1.00  0.00    -0.274 OA
HETATM   26  C   UNL     1      53.038   2.356  98.473  1.00  0.00     0.117 C 
HETATM   27  H   UNL     1      51.595   1.010 100.000  1.00  0.00     0.171 HD
ENDBRANCH  12  23
TORSDOF 6
ENDMDL
MODEL 10
REMARK VINA RESULT:      -5.7      4.847      6.416
REMARK  6 active torsions:
REMARK  status: ('A' for Active; 'I' for Inactive)
REMARK    1  A    between atoms: S_2  and  N_8 
REMARK    2  A    between atoms: S_2  and  C_11 
REMARK    3  A    between atoms: O_6  and  C_20 
REMARK    4  A    between atoms: N_8  and  C_17 
REMARK    5  A    between atoms: N_10  and  C_21 
REMARK       I    between atoms: N_10  and  C_23 
REMARK    6  A    between atoms: C_17  and  C_20 
ROOT
HETATM    1 CL   UNL     1      43.845  -2.978 102.324  1.00  0.00    -0.083 Cl
HETATM    2  S   UNL     1      48.244   0.231 106.670  1.00  0.00    -0.049 SA
HETATM    3  N   UNL     1      50.050   1.502 105.328  1.00  0.00    -0.228 NA
HETATM    4  C   UNL     1      46.335  -2.714 103.419  1.00  0.00     0.102 A 
HETATM    5  C   UNL     1      47.139  -0.622 104.321  1.00  0.00    -0.015 A 
HETATM    6  C   UNL     1      47.342  -1.972 104.036  1.00  0.00     0.040 A 
HETATM    7  C   UNL     1      48.181   0.144 104.959  1.00  0.00     0.043 A 
HETATM    8  C   UNL     1      45.124  -2.105 103.087  1.00  0.00     0.057 A 
HETATM    9  C   UNL     1      45.929  -0.014 103.990  1.00  0.00     0.014 A 
HETATM   10  C   UNL     1      49.217   0.878 104.420  1.00  0.00     0.051 A 
HETATM   11  C   UNL     1      44.922  -0.755 103.372  1.00  0.00     0.026 A 
HETATM   12  C   UNL     1      49.633   1.230 106.545  1.00  0.00     0.174 A 
HETATM   13  C   UNL     1      49.508   1.053 102.982  1.00  0.00     0.072 C 
ENDROOT
BRANCH   4  14
HETATM   14  S   UNL     1      46.644  -4.407 103.087  1.00  0.00     0.260 S 
HETATM   15  O   UNL     1      45.800  -5.210 103.958  1.00  0.00    -0.200 OA
HETATM   16  O   UNL     1      46.571  -4.591 101.646  1.00  0.00    -0.200 OA
BRANCH  14  17
HETATM   17  N   UNL     1      48.269  -4.581 103.582  1.00  0.00    -0.313 N 
HETATM   18  H   UNL     1      48.668  -3.853 104.188  1.00  0.00     0.172 HD
BRANCH  17  19
HETATM   19  C   UNL     1      48.854  -5.922 103.724  1.00  0.00     0.158 C 
BRANCH  19  20
HETATM   20  C   UNL     1      49.879  -6.149 102.627  1.00  0.00     0.184 C 
BRANCH  20  21
HETATM   21  O   UNL     1      49.414  -5.563 101.418  1.00  0.00    -0.399 OA
HETATM   22  H   UNL     1      50.006  -4.819 101.215  1.00  0.00     0.209 HD
ENDBRANCH  20  21
ENDBRANCH  19  20
ENDBRANCH  17  19
ENDBRANCH  14  17
ENDBRANCH   4  14
BRANCH  12  23
HETATM   23  N   UNL     1      50.176   1.652 107.730  1.00  0.00    -0.306 N 
HETATM   24  C   UNL     1      50.537   2.966 108.070  1.00  0.00     0.219 C 
HETATM   25  O   UNL     1      50.438   3.975 107.381  1.00  0.00    -0.274 OA
HETATM   26  C   UNL     1      51.102   3.044 109.468  1.00  0.00     0.117 C 
HETATM   27  H   UNL     1      50.322   0.920 108.420  1.00  0.00     0.171 HD
ENDBRANCH  12  23
TORSDOF 6
ENDMDL
