REMARK  7 active torsions:
REMARK  status: ('A' for Active; 'I' for Inactive)
REMARK    1  A    between atoms: C1_1  and  C6_7 
REMARK    2  A    between atoms: C4_4  and  C8_10 
REMARK    3  A    between atoms: C5_5  and  C7_9 
REMARK    4  A    between atoms: N1_6  and  S1_8 
REMARK    5  A    between atoms: S1_8  and  C19_23 
REMARK    6  A    between atoms: C8_10  and  O1_11 
REMARK    7  A    between atoms: C16_20  and  C27_33 
ROOT
HETATM    1  C1  UNL     1      19.298 -17.835 -24.570  1.00  0.00     0.133 C 
HETATM    2  C2  UNL     1      20.217 -19.058 -24.315  1.00  0.00     0.059 C 
HETATM    3  C3  UNL     1      21.619 -18.663 -23.942  1.00  0.00    -0.008 C 
HETATM    4  C4  UNL     1      21.952 -17.386 -23.660  1.00  0.00     0.039 C 
HETATM    5  C5  UNL     1      20.955 -16.245 -23.644  1.00  0.00     0.169 C 
HETATM    6  N1  UNL     1      19.543 -16.777 -23.524  1.00  0.00    -0.283 N 
ENDROOT
BRANCH   5   7
HETATM    7  C7  UNL     1      21.271 -14.994 -22.831  1.00  0.00    -0.030 A 
HETATM    8  C14 UNL     1      22.025 -14.988 -21.652  1.00  0.00     0.010 A 
HETATM    9  C15 UNL     1      22.277 -13.795 -20.962  1.00  0.00     0.008 A 
HETATM   10  C16 UNL     1      21.783 -12.558 -21.413  1.00  0.00    -0.051 A 
HETATM   11  C17 UNL     1      21.018 -12.570 -22.587  1.00  0.00     0.008 A 
HETATM   12  C18 UNL     1      20.765 -13.761 -23.279  1.00  0.00     0.010 A 
BRANCH  10  13
HETATM   13  C27 UNL     1      22.073 -11.273 -20.621  1.00  0.00    -0.024 C 
HETATM   14  C28 UNL     1      22.980 -10.343 -21.455  1.00  0.00     0.019 C 
HETATM   15  C29 UNL     1      22.787 -11.519 -19.271  1.00  0.00     0.019 C 
HETATM   16  C30 UNL     1      20.748 -10.543 -20.307  1.00  0.00     0.019 C 
ENDBRANCH  10  13
ENDBRANCH   5   7
BRANCH   4  17
HETATM   17  C8  UNL     1      23.388 -17.065 -23.606  1.00  0.00     0.174 C 
HETATM   18  O2  UNL     1      23.984 -16.340 -24.378  1.00  0.00    -0.646 OA
BRANCH  17  19
HETATM   19  O1  UNL     1      24.007 -17.664 -22.574  1.00  0.00    -0.773 OA
HETATM   20  H6  UNL     1      23.279 -17.868 -21.952  1.00  0.00     0.167 HD
ENDBRANCH  17  19
ENDBRANCH   4  17
BRANCH   6  21
HETATM   21  S1  UNL     1      18.740 -16.866 -22.025  1.00  0.00     0.262 S 
HETATM   22  O3  UNL     1      17.829 -17.988 -21.998  1.00  0.00    -0.200 OA
HETATM   23  O4  UNL     1      19.722 -16.753 -20.967  1.00  0.00    -0.200 OA
BRANCH  21  24
HETATM   24  C19 UNL     1      17.723 -15.407 -21.913  1.00  0.00     0.079 A 
HETATM   25  C20 UNL     1      16.506 -15.352 -22.591  1.00  0.00     0.026 A 
HETATM   26  C21 UNL     1      15.696 -14.220 -22.470  1.00  0.00     0.008 A 
HETATM   27  C22 UNL     1      16.087 -13.150 -21.655  1.00  0.00    -0.062 A 
HETATM   28  C23 UNL     1      17.281 -13.242 -20.930  1.00  0.00     0.008 A 
HETATM   29  C26 UNL     1      15.194 -11.955 -21.497  1.00  0.00     0.048 C 
HETATM   30  C24 UNL     1      18.095 -14.370 -21.051  1.00  0.00     0.026 A 
ENDBRANCH  21  24
ENDBRANCH   6  21
BRANCH   1  31
HETATM   31  C6  UNL     1      17.851 -18.133 -24.924  1.00  0.00    -0.034 A 
HETATM   32  C9  UNL     1      17.118 -17.162 -25.632  1.00  0.00     0.010 A 
HETATM   33  C10 UNL     1      15.795 -17.392 -26.016  1.00  0.00     0.007 A 
HETATM   34  C11 UNL     1      15.173 -18.607 -25.718  1.00  0.00    -0.062 A 
HETATM   35  C12 UNL     1      15.888 -19.576 -25.009  1.00  0.00     0.007 A 
HETATM   36  C25 UNL     1      13.739 -18.838 -26.091  1.00  0.00     0.048 C 
HETATM   37  C13 UNL     1      17.214 -19.345 -24.624  1.00  0.00     0.010 A 
ENDBRANCH   1  31
TORSDOF 7
