REMARK  9 active torsions:
REMARK  status: ('A' for Active; 'I' for Inactive)
REMARK    1  A    between atoms: C7_8  and  O1_12 
REMARK    2  A    between atoms: C8_9  and  C10_13 
REMARK    3  A    between atoms: C10_13  and  C11_14 
REMARK    4  A    between atoms: C10_13  and  C12_15 
REMARK    5  A    between atoms: C12_15  and  C18_21 
REMARK    6  A    between atoms: C12_15  and  C19_22 
REMARK    7  A    between atoms: C12_15  and  O2_37 
REMARK    8  A    between atoms: C19_22  and  C20_23 
REMARK    9  A    between atoms: C20_23  and  N2_24 
ROOT
HETATM    1  C10 UNL     1      18.437 -15.106 -21.582  1.00  0.00     0.095 C 
ENDROOT
BRANCH   1   2
HETATM    2  C8  UNL     1      19.833 -14.686 -21.111  1.00  0.00     0.007 A 
HETATM    3  C7  UNL     1      20.569 -15.511 -20.249  1.00  0.00     0.171 A 
HETATM    4  N1  UNL     1      21.805 -15.223 -19.781  1.00  0.00    -0.224 NA
HETATM    5  C4  UNL     1      22.365 -14.059 -20.135  1.00  0.00     0.070 A 
HETATM    6  C3  UNL     1      23.633 -13.744 -19.662  1.00  0.00     0.034 A 
HETATM    7  C5  UNL     1      21.709 -13.133 -20.967  1.00  0.00    -0.005 A 
HETATM    8  C2  UNL     1      24.261 -12.538 -19.997  1.00  0.00     0.021 A 
HETATM    9  C1  UNL     1      23.605 -11.629 -20.818  1.00  0.00     0.011 A 
HETATM   10  C6  UNL     1      22.332 -11.917 -21.304  1.00  0.00     0.032 A 
HETATM   11 BR1  UNL     1      24.440  -9.999 -21.278  1.00  0.00    -0.051 Br
HETATM   12  C9  UNL     1      20.428 -13.464 -21.436  1.00  0.00     0.026 A 
BRANCH   3  13
HETATM   13  O1  UNL     1      20.009 -16.722 -19.888  1.00  0.00    -0.339 OA
HETATM   14  C28 UNL     1      20.910 -17.822 -19.988  1.00  0.00     0.211 C 
ENDBRANCH   3  13
ENDBRANCH   1   2
BRANCH   1  15
HETATM   15  C11 UNL     1      17.491 -13.879 -21.571  1.00  0.00    -0.046 A 
HETATM   16  C13 UNL     1      16.313 -13.929 -20.803  1.00  0.00     0.008 A 
HETATM   17  C14 UNL     1      15.436 -12.844 -20.758  1.00  0.00     0.001 A 
HETATM   18  C15 UNL     1      15.723 -11.688 -21.476  1.00  0.00     0.000 A 
HETATM   19  C16 UNL     1      16.888 -11.614 -22.237  1.00  0.00     0.001 A 
HETATM   20  C17 UNL     1      17.765 -12.699 -22.282  1.00  0.00     0.008 A 
ENDBRANCH   1  15
BRANCH   1  21
HETATM   21  C12 UNL     1      18.216 -16.100 -22.852  1.00  0.00     0.099 C 
BRANCH  21  22
HETATM   22  C18 UNL     1      19.380 -16.188 -23.887  1.00  0.00    -0.012 A 
HETATM   23  C23 UNL     1      20.189 -15.059 -24.130  1.00  0.00     0.011 A 
HETATM   24  C24 UNL     1      21.212 -15.063 -25.076  1.00  0.00     0.002 A 
HETATM   25  C25 UNL     1      21.466 -16.205 -25.816  1.00  0.00     0.012 A 
HETATM   26  C26 UNL     1      20.714 -17.363 -25.615  1.00  0.00    -0.025 A 
HETATM   27  C27 UNL     1      19.669 -17.389 -24.647  1.00  0.00    -0.017 A 
HETATM   28  C29 UNL     1      21.016 -18.494 -26.393  1.00  0.00     0.012 A 
HETATM   29  C32 UNL     1      18.986 -18.631 -24.525  1.00  0.00     0.013 A 
HETATM   30  C31 UNL     1      19.295 -19.752 -25.304  1.00  0.00     0.001 A 
HETATM   31  C30 UNL     1      20.309 -19.683 -26.244  1.00  0.00     0.001 A 
ENDBRANCH  21  22
BRANCH  21  32
HETATM   32  C19 UNL     1      16.807 -15.973 -23.528  1.00  0.00     0.074 C 
BRANCH  32  33
HETATM   33  C20 UNL     1      15.766 -17.069 -23.216  1.00  0.00     0.274 C 
BRANCH  33  34
HETATM   34  N2  UNL     1      15.444 -17.990 -24.323  1.00  0.00     0.080 N 
HETATM   35  C21 UNL     1      14.088 -17.848 -24.838  1.00  0.00     0.309 C 
HETATM   36  C22 UNL     1      15.754 -19.384 -24.022  1.00  0.00     0.309 C 
ENDBRANCH  33  34
ENDBRANCH  32  33
ENDBRANCH  21  32
BRANCH  21  37
HETATM   37  O2  UNL     1      18.237 -17.427 -22.236  1.00  0.00    -0.384 OA
HETATM   38  H31 UNL     1      17.326 -17.652 -21.973  1.00  0.00     0.211 HD
ENDBRANCH  21  37
ENDBRANCH   1  21
TORSDOF 9
