REMARK  3 active torsions:
REMARK  status: ('A' for Active; 'I' for Inactive)
REMARK    1  A    between atoms: C8_9  and  C18_23 
REMARK    2  A    between atoms: C9_10  and  C17_19 
REMARK    3  A    between atoms: C17_19  and  O2_21 
ROOT
HETATM    1  C1  UNL     1      19.889 -15.033 -22.023  1.00  0.00     0.180 C 
HETATM    2  C2  UNL     1      21.023 -15.492 -21.063  1.00  0.00     0.043 C 
HETATM    3  C3  UNL     1      22.115 -14.454 -20.775  1.00  0.00     0.003 C 
HETATM    4  C4  UNL     1      21.624 -13.022 -20.878  1.00  0.00     0.000 C 
HETATM    5  C5  UNL     1      21.052 -12.720 -22.261  1.00  0.00     0.003 C 
HETATM    6  C6  UNL     1      20.473 -13.952 -22.974  1.00  0.00     0.043 C 
HETATM    7  N1  UNL     1      18.796 -14.415 -21.236  1.00  0.00     0.110 N 
HETATM    8  C7  UNL     1      19.171 -16.226 -22.748  1.00  0.00     0.116 A 
HETATM    9  C8  UNL     1      17.779 -15.642 -23.081  1.00  0.00     0.090 C 
HETATM   10  C9  UNL     1      17.485 -14.729 -21.878  1.00  0.00     0.328 C 
HETATM   11  N2  UNL     1      19.678 -18.538 -22.434  1.00  0.00    -0.326 N 
HETATM   12  C10 UNL     1      19.053 -17.471 -21.804  1.00  0.00     0.239 A 
HETATM   13  C11 UNL     1      19.893 -16.842 -23.941  1.00  0.00    -0.010 A 
HETATM   14  C12 UNL     1      20.238 -16.307 -25.173  1.00  0.00     0.012 A 
HETATM   15  C13 UNL     1      20.883 -17.129 -26.105  1.00  0.00     0.024 A 
HETATM   16  C14 UNL     1      21.160 -18.472 -25.802  1.00  0.00     0.036 A 
HETATM   17  C15 UNL     1      20.795 -19.022 -24.577  1.00  0.00     0.054 A 
HETATM   18  C16 UNL     1      20.162 -18.187 -23.679  1.00  0.00     0.044 A 
HETATM   19  O3  UNL     1      18.524 -17.549 -20.708  1.00  0.00    -0.272 OA
HETATM   20 CL2  UNL     1      21.950 -19.456 -26.974  1.00  0.00    -0.084 Cl
HETATM   21  H11 UNL     1      18.892 -13.401 -21.140  1.00  0.00     0.318 HD
HETATM   22  H14 UNL     1      19.719 -19.455 -22.014  1.00  0.00     0.169 HD
ENDROOT
BRANCH   9  23
HETATM   23  C18 UNL     1      16.710 -16.630 -23.536  1.00  0.00    -0.009 A 
HETATM   24  C19 UNL     1      16.427 -16.924 -24.877  1.00  0.00     0.144 A 
HETATM   25  C20 UNL     1      15.420 -17.831 -25.225  1.00  0.00     0.073 A 
HETATM   26  F1  UNL     1      17.120 -16.332 -25.857  1.00  0.00    -0.204 F 
HETATM   27  C21 UNL     1      14.673 -18.467 -24.238  1.00  0.00     0.027 A 
HETATM   28 CL1  UNL     1      15.086 -18.179 -26.880  1.00  0.00    -0.081 Cl
HETATM   29  C22 UNL     1      14.937 -18.197 -22.898  1.00  0.00     0.002 A 
HETATM   30  C23 UNL     1      15.945 -17.290 -22.554  1.00  0.00     0.011 A 
ENDBRANCH   9  23
BRANCH  10  31
HETATM   31  C17 UNL     1      16.809 -13.434 -22.333  1.00  0.00     0.175 C 
HETATM   32  O1  UNL     1      15.722 -13.343 -22.884  1.00  0.00    -0.648 OA
BRANCH  31  33
HETATM   33  O2  UNL     1      17.535 -12.331 -22.072  1.00  0.00    -0.775 OA
HETATM   34  H18 UNL     1      16.869 -11.620 -21.965  1.00  0.00     0.167 HD
ENDBRANCH  31  33
ENDBRANCH  10  31
TORSDOF 3
