REMARK  4 active torsions:
REMARK  status: ('A' for Active; 'I' for Inactive)
REMARK    1  A    between atoms: N1_3  and  C4_7 
REMARK    2  A    between atoms: C4_7  and  C5_8 
REMARK    3  A    between atoms: C4_7  and  C6_9 
REMARK    4  A    between atoms: C4_7  and  C7_10 
ROOT
HETATM    1  C4  UNL     1      18.323 -15.886 -22.598  1.00  0.00     0.120 C 
ENDROOT
BRANCH   1   2
HETATM    2  N1  UNL     1      19.092 -16.558 -21.500  1.00  0.00    -0.325 N 
HETATM    3  C2  UNL     1      19.782 -17.752 -21.565  1.00  0.00     0.143 A 
HETATM    4  C1  UNL     1      20.379 -17.880 -20.343  1.00  0.00     0.138 A 
HETATM    5  N2  UNL     1      20.174 -16.803 -19.556  1.00  0.00    -0.225 NA
HETATM    6  N3  UNL     1      21.124 -18.899 -19.921  1.00  0.00    -0.383 N 
HETATM    7  C3  UNL     1      19.448 -15.991 -20.293  1.00  0.00     0.213 A 
HETATM    8  H3  UNL     1      21.589 -19.494 -20.596  1.00  0.00     0.157 HD
HETATM    9  H4  UNL     1      21.687 -18.717 -19.097  1.00  0.00     0.157 HD
ENDBRANCH   1   2
BRANCH   1  10
HETATM   10  C5  UNL     1      17.038 -16.704 -23.001  1.00  0.00    -0.020 A 
HETATM   11  C13 UNL     1      15.963 -16.104 -23.692  1.00  0.00     0.010 A 
HETATM   12  C14 UNL     1      14.854 -16.848 -24.106  1.00  0.00     0.001 A 
HETATM   13  C15 UNL     1      14.804 -18.217 -23.870  1.00  0.00     0.000 A 
HETATM   14  C16 UNL     1      15.871 -18.848 -23.239  1.00  0.00     0.001 A 
HETATM   15  C17 UNL     1      16.981 -18.104 -22.826  1.00  0.00     0.010 A 
ENDBRANCH   1  10
BRANCH   1  16
HETATM   16  C6  UNL     1      19.401 -15.783 -23.741  1.00  0.00    -0.020 A 
HETATM   17  C18 UNL     1      20.616 -15.091 -23.553  1.00  0.00     0.010 A 
HETATM   18  C19 UNL     1      21.596 -15.053 -24.550  1.00  0.00     0.001 A 
HETATM   19  C20 UNL     1      21.402 -15.734 -25.746  1.00  0.00     0.000 A 
HETATM   20  C21 UNL     1      20.238 -16.470 -25.941  1.00  0.00     0.001 A 
HETATM   21  C22 UNL     1      19.258 -16.508 -24.946  1.00  0.00     0.010 A 
ENDBRANCH   1  16
BRANCH   1  22
HETATM   22  C7  UNL     1      17.736 -14.498 -22.137  1.00  0.00    -0.020 A 
HETATM   23  C8  UNL     1      16.505 -14.425 -21.451  1.00  0.00     0.010 A 
HETATM   24  C9  UNL     1      15.999 -13.210 -20.983  1.00  0.00     0.001 A 
HETATM   25  C10 UNL     1      16.728 -12.038 -21.157  1.00  0.00     0.000 A 
HETATM   26  C11 UNL     1      17.970 -12.085 -21.781  1.00  0.00     0.001 A 
HETATM   27  C12 UNL     1      18.477 -13.301 -22.248  1.00  0.00     0.010 A 
ENDBRANCH   1  22
TORSDOF 4
