REMARK  9 active torsions:
REMARK  status: ('A' for Active; 'I' for Inactive)
REMARK       I    between atoms: C1_1  and  N1_2 
REMARK    1  A    between atoms: C1_1  and  C12_17 
REMARK    2  A    between atoms: N1_2  and  C2_3 
REMARK    3  A    between atoms: C3_5  and  N3_9 
REMARK    4  A    between atoms: C13_18  and  N4_19 
REMARK    5  A    between atoms: C22_28  and  N5_29 
REMARK    6  A    between atoms: N5_29  and  S1_30 
REMARK    7  A    between atoms: S1_30  and  C23_31 
REMARK    8  A    between atoms: C23_31  and  C24_32 
REMARK    9  A    between atoms: C24_32  and  O3_33 
ROOT
HETATM    1  C12 UNL     1      18.476 -15.295 -22.280  1.00  0.00     0.059 A 
HETATM    2  C13 UNL     1      18.722 -16.246 -23.309  1.00  0.00     0.047 A 
HETATM    3  C21 UNL     1      17.610 -16.700 -24.044  1.00  0.00     0.054 A 
HETATM    4  C22 UNL     1      16.324 -16.205 -23.809  1.00  0.00     0.024 A 
HETATM    5  C25 UNL     1      16.103 -15.251 -22.829  1.00  0.00     0.025 A 
HETATM    6  C26 UNL     1      17.176 -14.798 -22.066  1.00  0.00     0.021 A 
ENDROOT
BRANCH   1   7
HETATM    7  C1  UNL     1      19.524 -14.797 -21.322  1.00  0.00     0.259 C 
HETATM    8  N1  UNL     1      20.221 -13.688 -21.731  1.00  0.00    -0.307 N 
HETATM    9  H1  UNL     1      19.924 -13.247 -22.600  1.00  0.00     0.170 HD
HETATM   10  O2  UNL     1      19.703 -15.412 -20.275  1.00  0.00    -0.267 OA
BRANCH   8  11
HETATM   11  C2  UNL     1      21.203 -12.965 -21.056  1.00  0.00     0.132 A 
HETATM   12  N2  UNL     1      22.205 -13.733 -20.567  1.00  0.00    -0.219 NA
HETATM   13  C3  UNL     1      23.242 -13.149 -19.926  1.00  0.00     0.107 A 
HETATM   14  C4  UNL     1      23.286 -11.761 -19.783  1.00  0.00     0.044 A 
HETATM   15  C5  UNL     1      22.245 -10.978 -20.267  1.00  0.00     0.007 A 
HETATM   16  C6  UNL     1      21.181 -11.590 -20.913  1.00  0.00     0.051 A 
BRANCH  13  17
HETATM   17  N3  UNL     1      24.295 -13.942 -19.446  1.00  0.00    -0.263 NA
HETATM   18  C7  UNL     1      24.182 -15.385 -19.781  1.00  0.00     0.128 C 
HETATM   19  C8  UNL     1      25.562 -16.078 -19.715  1.00  0.00     0.131 C 
HETATM   20  C9  UNL     1      25.450 -17.564 -20.034  1.00  0.00     0.040 C 
HETATM   21  O1  UNL     1      26.505 -15.507 -20.644  1.00  0.00    -0.384 OA
HETATM   22  C10 UNL     1      26.349 -14.085 -20.816  1.00  0.00     0.183 C 
HETATM   23  C11 UNL     1      25.657 -13.395 -19.628  1.00  0.00     0.123 C 
ENDBRANCH  13  17
ENDBRANCH   8  11
ENDBRANCH   1   7
BRANCH   2  24
HETATM   24  N4  UNL     1      20.017 -16.705 -23.595  1.00  0.00    -0.380 N 
HETATM   25  C14 UNL     1      20.597 -16.214 -24.871  1.00  0.00     0.123 C 
HETATM   26  C15 UNL     1      20.377 -17.216 -26.007  1.00  0.00     0.029 C 
HETATM   27  C16 UNL     1      20.921 -18.574 -25.620  1.00  0.00    -0.037 A 
HETATM   28  C17 UNL     1      22.352 -18.916 -25.979  1.00  0.00     0.010 A 
HETATM   29  C18 UNL     1      21.218 -19.569 -26.721  1.00  0.00     0.010 A 
HETATM   30  C19 UNL     1      20.335 -19.097 -24.327  1.00  0.00     0.029 C 
HETATM   31  C20 UNL     1      20.445 -18.064 -23.196  1.00  0.00     0.123 C 
ENDBRANCH   2  24
BRANCH   4  32
HETATM   32  N5  UNL     1      15.209 -16.706 -24.550  1.00  0.00    -0.186 NA
HETATM   33  H28 UNL     1      15.305 -16.630 -25.567  1.00  0.00     0.146 HD
BRANCH  32  34
HETATM   34  S1  UNL     1      14.683 -18.276 -24.177  1.00  0.00     0.215 S 
HETATM   35  O4  UNL     1      13.909 -18.136 -22.960  1.00  0.00    -0.211 OA
HETATM   36  O5  UNL     1      14.109 -18.881 -25.358  1.00  0.00    -0.211 OA
BRANCH  34  37
HETATM   37  C23 UNL     1      16.211 -19.103 -23.778  1.00  0.00     0.183 C 
BRANCH  37  38
HETATM   38  C24 UNL     1      16.418 -20.348 -24.611  1.00  0.00     0.180 C 
BRANCH  38  39
HETATM   39  O3  UNL     1      16.387 -21.502 -23.774  1.00  0.00    -0.400 OA
HETATM   40  H33 UNL     1      15.502 -21.900 -23.836  1.00  0.00     0.209 HD
ENDBRANCH  38  39
ENDBRANCH  37  38
ENDBRANCH  34  37
ENDBRANCH  32  34
ENDBRANCH   4  32
TORSDOF 9
