REMARK  3 active torsions:
REMARK  status: ('A' for Active; 'I' for Inactive)
REMARK    1  A    between atoms: C5_6  and  N1_26 
REMARK    2  A    between atoms: C12_13  and  O5_25 
REMARK    3  A    between atoms: C17_19  and  O4_24 
ROOT
HETATM    1  C1  UNL     1      18.021 -17.097 -23.058  1.00  0.00     0.159 A 
HETATM    2  O1  UNL     1      18.422 -17.674 -21.784  1.00  0.00    -0.291 OA
HETATM    3  C2  UNL     1      19.779 -17.733 -21.646  1.00  0.00     0.295 A 
HETATM    4  C3  UNL     1      20.356 -17.179 -22.860  1.00  0.00     0.051 A 
HETATM    5  C4  UNL     1      21.696 -17.040 -23.184  1.00  0.00     0.041 A 
HETATM    6  C5  UNL     1      22.019 -16.451 -24.408  1.00  0.00     0.006 A 
HETATM    7  C6  UNL     1      20.983 -16.111 -25.300  1.00  0.00     0.024 A 
HETATM    8  C7  UNL     1      19.635 -16.262 -24.949  1.00  0.00     0.014 A 
HETATM    9  C8  UNL     1      19.337 -16.800 -23.707  1.00  0.00     0.003 A 
HETATM   10  C9  UNL     1      17.218 -15.838 -22.786  1.00  0.00     0.020 A 
HETATM   11  C10 UNL     1      17.588 -14.904 -21.798  1.00  0.00     0.016 A 
HETATM   12  C11 UNL     1      16.852 -13.730 -21.614  1.00  0.00     0.037 A 
HETATM   13  C12 UNL     1      15.749 -13.482 -22.421  1.00  0.00     0.068 A 
HETATM   14  C13 UNL     1      15.366 -14.388 -23.400  1.00  0.00     0.074 A 
HETATM   15  C14 UNL     1      16.094 -15.567 -23.573  1.00  0.00     0.088 A 
HETATM   16  O2  UNL     1      15.640 -16.416 -24.555  1.00  0.00    -0.309 OA
HETATM   17  C15 UNL     1      16.091 -17.714 -24.547  1.00  0.00     0.088 A 
HETATM   18  C16 UNL     1      15.357 -18.618 -25.320  1.00  0.00     0.074 A 
HETATM   19  C17 UNL     1      15.744 -19.952 -25.361  1.00  0.00     0.068 A 
HETATM   20  C18 UNL     1      16.851 -20.392 -24.648  1.00  0.00     0.037 A 
HETATM   21  C19 UNL     1      17.588 -19.485 -23.884  1.00  0.00     0.016 A 
HETATM   22  C20 UNL     1      17.217 -18.128 -23.826  1.00  0.00     0.020 A 
HETATM   23  O3  UNL     1      20.390 -18.156 -20.687  1.00  0.00    -0.259 OA
ENDROOT
BRANCH   6  24
HETATM   24  N1  UNL     1      23.350 -16.404 -24.835  1.00  0.00    -0.303 NA
HETATM   25  H12 UNL     1      24.021 -16.226 -24.095  1.00  0.00     0.124 HD
HETATM   26  H13 UNL     1      23.627 -17.177 -25.432  1.00  0.00     0.124 HD
ENDBRANCH   6  24
BRANCH  13  27
HETATM   27  O5  UNL     1      15.007 -12.347 -22.280  1.00  0.00    -0.361 OA
HETATM   28  H11 UNL     1      14.865 -12.180 -21.333  1.00  0.00     0.217 HD
ENDBRANCH  13  27
BRANCH  19  29
HETATM   29  O4  UNL     1      15.057 -20.870 -26.097  1.00  0.00    -0.361 OA
HETATM   30  H10 UNL     1      14.456 -21.356 -25.509  1.00  0.00     0.217 HD
ENDBRANCH  19  29
TORSDOF 3
