REMARK  2 active torsions:
REMARK  status: ('A' for Active; 'I' for Inactive)
REMARK    1  A    between atoms: C8_4  and  N7_18 
REMARK    2  A    between atoms: C13_7  and  C18_11 
ROOT
ATOM      1  C14 7IK A 902      49.437   3.228 102.596  1.00 24.27     0.153 C 
ATOM      2  C8  7IK A 902      50.122   2.752 107.107  1.00 23.23     0.141 A 
ATOM      3  C9  7IK A 902      50.525   3.973 106.538  1.00 23.08     0.056 A 
ATOM      4  C10 7IK A 902      50.410   3.848 105.180  1.00 23.09     0.138 A 
ATOM      5  C13 7IK A 902      49.696   2.075 103.572  1.00 23.86     0.130 C 
ATOM      6  C16 7IK A 902      50.689   4.780 104.073  1.00 22.99     0.292 C 
ATOM      7  N11 7IK A 902      49.941   2.579 104.922  1.00 23.25    -0.245 N 
ATOM      8  N12 7IK A 902      49.776   1.935 106.137  1.00 23.34    -0.158 NA
ATOM      9  N15 7IK A 902      50.206   4.441 102.853  1.00 25.36    -0.231 NA
ATOM     10  O17 7IK A 902      51.326   5.801 104.240  1.00 24.42    -0.264 OA
ENDROOT
BRANCH   2  11
ATOM     11  N7  7IK A 902      50.060   2.407 108.464  1.00 23.28    -0.233 NA
ATOM     12  C6  7IK A 902      50.056   0.946 108.640  1.00 23.49     0.110 C 
ATOM     13  C5  7IK A 902      49.741   0.632 110.103  1.00 23.55     0.160 C 
ATOM     14  O4  7IK A 902      50.724   1.274 110.919  1.00 23.46    -0.351 OA
ATOM     15  C3  7IK A 902      50.739   2.698 110.786  1.00 23.26     0.159 C 
ATOM     16  C2  7IK A 902      51.040   3.078 109.333  1.00 23.20     0.093 C 
ATOM     17  C1  7IK A 902      52.466   2.649 108.980  1.00 23.25     0.020 C 
ENDBRANCH   2  11
BRANCH   5  18
ATOM     18  C18 7IK A 902      50.897   1.226 103.140  1.00 26.61     0.025 C 
ATOM     19  C19 7IK A 902      50.540   0.404 101.900  1.00 34.70     0.002 C 
ATOM     20  C20 7IK A 902      52.106   2.122 102.860  1.00 23.34     0.002 C 
ENDBRANCH   5  18
TORSDOF 2
