MODEL 1
REMARK VINA RESULT:      -8.1      0.000      0.000
REMARK  6 active torsions:
REMARK  status: ('A' for Active; 'I' for Inactive)
REMARK    1  A    between atoms: N1_7  and  C9_10 
REMARK    2  A    between atoms: C8_9  and  C16_19 
REMARK    3  A    between atoms: C9_10  and  C10_11 
REMARK    4  A    between atoms: C10_11  and  N2_12 
REMARK    5  A    between atoms: C16_19  and  C17_20 
REMARK    6  A    between atoms: C20_24  and  O3_27 
ROOT
HETATM    1  C1  UNL     1      51.100   3.334 109.424  1.00  0.00     0.001 A 
HETATM    2  C2  UNL     1      50.793   2.125 110.040  1.00  0.00     0.002 A 
HETATM    3  C3  UNL     1      50.249   1.065 109.310  1.00  0.00     0.030 A 
HETATM    4  C4  UNL     1      50.025   1.251 107.934  1.00  0.00     0.046 A 
HETATM    5  C5  UNL     1      50.335   2.453 107.289  1.00  0.00     0.007 A 
HETATM    6  C6  UNL     1      50.874   3.511 108.056  1.00  0.00     0.015 A 
HETATM    7  N1  UNL     1      49.485   0.408 106.980  1.00  0.00    -0.347 N 
HETATM    8  C7  UNL     1      49.436   1.035 105.752  1.00  0.00     0.023 A 
HETATM    9  C8  UNL     1      49.983   2.305 105.908  1.00  0.00     0.050 A 
HETATM   10  C15 UNL     1      48.884   0.384 104.527  1.00  0.00     0.069 C 
ENDROOT
BRANCH   9  11
HETATM   11  C16 UNL     1      50.114   3.293 104.840  1.00  0.00     0.195 C 
HETATM   12  O2  UNL     1      49.765   4.462 104.993  1.00  0.00    -0.287 OA
BRANCH  11  13
HETATM   13  C17 UNL     1      50.676   2.874 103.523  1.00  0.00     0.015 A 
HETATM   14  C18 UNL     1      49.934   3.131 102.366  1.00  0.00     0.018 A 
HETATM   15  C19 UNL     1      50.417   2.730 101.119  1.00  0.00     0.037 A 
HETATM   16  C20 UNL     1      51.642   2.067 101.008  1.00  0.00     0.068 A 
HETATM   17  C21 UNL     1      52.378   1.791 102.161  1.00  0.00     0.037 A 
HETATM   18  C22 UNL     1      51.895   2.185 103.413  1.00  0.00     0.018 A 
BRANCH  16  19
HETATM   19  O3  UNL     1      51.992   1.734  99.731  1.00  0.00    -0.356 OA
HETATM   20  C23 UNL     1      52.849   2.638  99.040  1.00  0.00     0.210 C 
ENDBRANCH  16  19
ENDBRANCH  11  13
ENDBRANCH   9  11
BRANCH   7  21
HETATM   21  C9  UNL     1      49.028  -0.953 107.255  1.00  0.00     0.159 C 
BRANCH  21  22
HETATM   22  C10 UNL     1      47.531  -0.996 107.595  1.00  0.00     0.292 C 
BRANCH  22  23
HETATM   23  N2  UNL     1      46.797  -2.214 107.219  1.00  0.00     0.094 N 
HETATM   24  C11 UNL     1      46.978  -2.607 105.810  1.00  0.00     0.298 C 
HETATM   25  C12 UNL     1      46.538  -4.060 105.575  1.00  0.00     0.198 C 
HETATM   26  O1  UNL     1      47.338  -4.998 106.311  1.00  0.00    -0.388 OA
HETATM   27  C13 UNL     1      47.827  -4.485 107.558  1.00  0.00     0.198 C 
HETATM   28  C14 UNL     1      46.969  -3.349 108.139  1.00  0.00     0.298 C 
ENDBRANCH  22  23
ENDBRANCH  21  22
ENDBRANCH   7  21
TORSDOF 6
ENDMDL
