MODEL 1
REMARK VINA RESULT:      -6.7      0.000      0.000
REMARK  7 active torsions:
REMARK  status: ('A' for Active; 'I' for Inactive)
REMARK    1  A    between atoms: C1_1  and  C6_7 
REMARK    2  A    between atoms: C4_4  and  C8_10 
REMARK    3  A    between atoms: C5_5  and  C7_9 
REMARK    4  A    between atoms: N1_6  and  S1_8 
REMARK    5  A    between atoms: S1_8  and  C19_23 
REMARK    6  A    between atoms: C8_10  and  O1_11 
REMARK    7  A    between atoms: C16_20  and  C27_33 
ROOT
HETATM    1  C1  UNL     1      50.252   3.467 103.866  1.00  0.00     0.133 C 
HETATM    2  C2  UNL     1      50.264   4.937 104.360  1.00  0.00     0.059 C 
HETATM    3  C3  UNL     1      50.297   5.929 103.230  1.00  0.00    -0.008 C 
HETATM    4  C4  UNL     1      50.119   5.556 101.945  1.00  0.00     0.039 C 
HETATM    5  C5  UNL     1      49.825   4.132 101.519  1.00  0.00     0.169 C 
HETATM    6  N1  UNL     1      49.315   3.323 102.693  1.00  0.00    -0.283 N 
ENDROOT
BRANCH   5   7
HETATM    7  C7  UNL     1      49.132   3.884 100.184  1.00  0.00    -0.030 A 
HETATM    8  C14 UNL     1      48.010   4.588  99.733  1.00  0.00     0.010 A 
HETATM    9  C15 UNL     1      47.430   4.305  98.489  1.00  0.00     0.008 A 
HETATM   10  C16 UNL     1      47.940   3.304  97.644  1.00  0.00    -0.051 A 
HETATM   11  C17 UNL     1      49.056   2.592  98.104  1.00  0.00     0.008 A 
HETATM   12  C18 UNL     1      49.637   2.873  99.347  1.00  0.00     0.010 A 
BRANCH  10  13
HETATM   13  C27 UNL     1      47.269   3.017  96.291  1.00  0.00    -0.024 C 
HETATM   14  C28 UNL     1      47.529   1.551  95.883  1.00  0.00     0.019 C 
HETATM   15  C29 UNL     1      47.781   3.911  95.138  1.00  0.00     0.019 C 
HETATM   16  C30 UNL     1      45.746   3.250  96.404  1.00  0.00     0.019 C 
ENDBRANCH  10  13
ENDBRANCH   5   7
BRANCH   4  17
HETATM   17  C8  UNL     1      50.468   6.541 100.908  1.00  0.00     0.174 C 
HETATM   18  O2  UNL     1      50.660   6.299  99.732  1.00  0.00    -0.646 OA
BRANCH  17  19
HETATM   19  O1  UNL     1      50.549   7.791 101.396  1.00  0.00    -0.773 OA
HETATM   20  H6  UNL     1      50.167   8.345 100.685  1.00  0.00     0.167 HD
ENDBRANCH  17  19
ENDBRANCH   4  17
BRANCH   6  21
HETATM   21  S1  UNL     1      47.652   3.078 102.962  1.00  0.00     0.262 S 
HETATM   22  O3  UNL     1      47.431   2.389 104.214  1.00  0.00    -0.200 OA
HETATM   23  O4  UNL     1      46.958   4.329 102.736  1.00  0.00    -0.200 OA
BRANCH  21  24
HETATM   24  C19 UNL     1      47.095   1.966 101.686  1.00  0.00     0.079 A 
HETATM   25  C20 UNL     1      45.959   2.276 100.939  1.00  0.00     0.026 A 
HETATM   26  C21 UNL     1      45.549   1.418  99.915  1.00  0.00     0.008 A 
HETATM   27  C22 UNL     1      46.282   0.261  99.620  1.00  0.00    -0.062 A 
HETATM   28  C23 UNL     1      47.455  -0.007 100.335  1.00  0.00     0.008 A 
HETATM   29  C26 UNL     1      45.859  -0.634  98.493  1.00  0.00     0.048 C 
HETATM   30  C24 UNL     1      47.867   0.846 101.361  1.00  0.00     0.026 A 
ENDBRANCH  21  24
ENDBRANCH   6  21
BRANCH   1  31
HETATM   31  C6  UNL     1      50.188   2.390 104.936  1.00  0.00    -0.034 A 
HETATM   32  C9  UNL     1      50.353   1.047 104.549  1.00  0.00     0.010 A 
HETATM   33  C10 UNL     1      50.339   0.016 105.492  1.00  0.00     0.007 A 
HETATM   34  C11 UNL     1      50.176   0.301 106.850  1.00  0.00    -0.062 A 
HETATM   35  C12 UNL     1      50.004   1.630 107.245  1.00  0.00     0.007 A 
HETATM   36  C25 UNL     1      50.117  -0.808 107.857  1.00  0.00     0.048 C 
HETATM   37  C13 UNL     1      50.018   2.663 106.300  1.00  0.00     0.010 A 
ENDBRANCH   1  31
TORSDOF 7
ENDMDL
