MODEL 1
REMARK VINA RESULT:      -8.3      0.000      0.000
REMARK  6 active torsions:
REMARK  status: ('A' for Active; 'I' for Inactive)
REMARK    1  A    between atoms: C1_1  and  O2_17 
REMARK    2  A    between atoms: C2_2  and  N3_19 
REMARK    3  A    between atoms: C5_5  and  C7_7 
REMARK       I    between atoms: C7_7  and  N1_9 
REMARK    4  A    between atoms: N1_9  and  C8_10 
REMARK    5  A    between atoms: N3_19  and  C15_20 
REMARK    6  A    between atoms: N7_30  and  C23_35 
ROOT
HETATM    1  N3  UNL     1      52.564   8.562  99.340  1.00  0.00    -0.185 N 
HETATM    2  H20 UNL     1      53.418   8.136  98.999  1.00  0.00     0.184 HD
ENDROOT
BRANCH   1   3
HETATM    3  C2  UNL     1      51.760   7.699 100.101  1.00  0.00     0.082 A 
HETATM    4  C1  UNL     1      51.035   6.687  99.422  1.00  0.00     0.096 A 
HETATM    5  C6  UNL     1      50.222   5.795 100.130  1.00  0.00     0.056 A 
HETATM    6  C5  UNL     1      50.114   5.903 101.521  1.00  0.00     0.034 A 
HETATM    7  C4  UNL     1      50.833   6.889 102.199  1.00  0.00     0.019 A 
HETATM    8  C3  UNL     1      51.642   7.784 101.492  1.00  0.00     0.034 A 
BRANCH   4   9
HETATM    9  O2  UNL     1      51.216   6.668  98.056  1.00  0.00    -0.354 OA
HETATM   10  C14 UNL     1      50.093   6.995  97.245  1.00  0.00     0.210 C 
ENDBRANCH   4   9
BRANCH   6  11
HETATM   11  C7  UNL     1      49.276   4.967 102.317  1.00  0.00     0.252 C 
HETATM   12  O1  UNL     1      48.849   5.309 103.413  1.00  0.00    -0.268 OA
HETATM   13  N1  UNL     1      49.008   3.744 101.734  1.00  0.00    -0.352 N 
HETATM   14  H4  UNL     1      49.208   3.627 100.749  1.00  0.00     0.163 HD
BRANCH  13  15
HETATM   15  C8  UNL     1      48.131   2.768 102.378  1.00  0.00     0.088 C 
HETATM   16  C9  UNL     1      47.381   1.926 101.331  1.00  0.00     0.055 C 
HETATM   17  C10 UNL     1      47.004   0.531 101.840  1.00  0.00     0.274 C 
HETATM   18  N2  UNL     1      46.738   0.569 103.274  1.00  0.00     0.084 N 
HETATM   19  C11 UNL     1      47.947   0.888 104.049  1.00  0.00     0.274 C 
HETATM   20  C13 UNL     1      46.123  -0.667 103.749  1.00  0.00     0.309 C 
HETATM   21  C12 UNL     1      48.901   1.850 103.328  1.00  0.00     0.055 C 
ENDBRANCH  13  15
ENDBRANCH   6  11
ENDBRANCH   1   3
BRANCH   1  22
HETATM   22  C15 UNL     1      52.567   9.927  99.091  1.00  0.00     0.728 A 
HETATM   23  N4  UNL     1      52.707  10.823 100.071  1.00  0.00    -0.073 NA
HETATM   24  C16 UNL     1      52.723  12.120  99.710  1.00  0.00     0.170 A 
HETATM   25  C17 UNL     1      52.593  12.575  98.411  1.00  0.00     0.102 A 
HETATM   26  C18 UNL     1      52.478  11.566  97.446  1.00  0.00     0.174 A 
HETATM   27  N6  UNL     1      52.664  13.971  98.100  1.00  0.00    -0.313 N 
HETATM   28  N5  UNL     1      52.456  10.267  97.798  1.00  0.00    -0.043 NA
HETATM   29  N7  UNL     1      52.527  11.888  96.077  1.00  0.00    -0.352 N 
HETATM   30  C21 UNL     1      51.328  12.606  95.587  1.00  0.00     0.214 C 
HETATM   31  C20 UNL     1      50.792  13.733  96.462  1.00  0.00     0.338 C 
HETATM   32  C19 UNL     1      51.934  14.559  97.058  1.00  0.00     0.298 C 
HETATM   33  F1  UNL     1      49.950  14.496  95.695  1.00  0.00    -0.194 F 
HETATM   34  F2  UNL     1      49.987  13.205  97.437  1.00  0.00    -0.194 F 
HETATM   35  O3  UNL     1      52.155  15.714  96.678  1.00  0.00    -0.266 OA
HETATM   36  C22 UNL     1      53.518  14.822  98.916  1.00  0.00     0.159 C 
BRANCH  29  37
HETATM   37  C23 UNL     1      53.078  10.904  95.121  1.00  0.00     0.086 C 
HETATM   38  C24 UNL     1      54.222  11.412  94.234  1.00  0.00     0.025 C 
HETATM   39  C25 UNL     1      54.094  10.586  92.963  1.00  0.00     0.002 C 
HETATM   40  C26 UNL     1      52.590  10.460  92.769  1.00  0.00     0.002 C 
HETATM   41  C27 UNL     1      52.040  10.267  94.181  1.00  0.00     0.025 C 
ENDBRANCH  29  37
ENDBRANCH   1  22
TORSDOF 6
ENDMDL
