MODEL 1
REMARK VINA RESULT:      -9.0      0.000      0.000
REMARK  9 active torsions:
REMARK  status: ('A' for Active; 'I' for Inactive)
REMARK       I    between atoms: C1_1  and  N1_2 
REMARK    1  A    between atoms: C1_1  and  C12_17 
REMARK    2  A    between atoms: N1_2  and  C2_3 
REMARK    3  A    between atoms: C3_5  and  N3_9 
REMARK    4  A    between atoms: C13_18  and  N4_19 
REMARK    5  A    between atoms: C22_28  and  N5_29 
REMARK    6  A    between atoms: N5_29  and  S1_30 
REMARK    7  A    between atoms: S1_30  and  C23_31 
REMARK    8  A    between atoms: C23_31  and  C24_32 
REMARK    9  A    between atoms: C24_32  and  O3_33 
ROOT
HETATM    1  C12 UNL     1      47.600   1.038 103.513  1.00  0.00     0.059 A 
HETATM    2  C13 UNL     1      47.874   1.467 102.185  1.00  0.00     0.047 A 
HETATM    3  C21 UNL     1      47.170   0.829 101.145  1.00  0.00     0.054 A 
HETATM    4  C22 UNL     1      46.208  -0.151 101.404  1.00  0.00     0.024 A 
HETATM    5  C25 UNL     1      45.924  -0.534 102.705  1.00  0.00     0.025 A 
HETATM    6  C26 UNL     1      46.618   0.058 103.756  1.00  0.00     0.021 A 
ENDROOT
BRANCH   1   7
HETATM    7  C1  UNL     1      48.344   1.522 104.728  1.00  0.00     0.259 C 
HETATM    8  N1  UNL     1      49.254   0.641 105.255  1.00  0.00    -0.307 N 
HETATM    9  H1  UNL     1      49.412  -0.225 104.744  1.00  0.00     0.170 HD
HETATM   10  O2  UNL     1      48.079   2.635 105.175  1.00  0.00    -0.267 OA
BRANCH   8  11
HETATM   11  C2  UNL     1      50.126   0.812 106.329  1.00  0.00     0.132 A 
HETATM   12  N2  UNL     1      50.758   2.009 106.333  1.00  0.00    -0.219 NA
HETATM   13  C3  UNL     1      51.601   2.316 107.344  1.00  0.00     0.107 A 
HETATM   14  C4  UNL     1      51.806   1.409 108.386  1.00  0.00     0.044 A 
HETATM   15  C5  UNL     1      51.172   0.173 108.368  1.00  0.00     0.007 A 
HETATM   16  C6  UNL     1      50.318  -0.135 107.319  1.00  0.00     0.051 A 
BRANCH  13  17
HETATM   17  N3  UNL     1      52.233   3.568 107.363  1.00  0.00    -0.263 NA
HETATM   18  C7  UNL     1      53.540   3.610 106.657  1.00  0.00     0.128 C 
HETATM   19  C8  UNL     1      53.904   5.057 106.253  1.00  0.00     0.131 C 
HETATM   20  C9  UNL     1      55.255   5.111 105.550  1.00  0.00     0.040 C 
HETATM   21  O1  UNL     1      52.930   5.637 105.363  1.00  0.00    -0.384 OA
HETATM   22  C10 UNL     1      51.580   5.217 105.639  1.00  0.00     0.183 C 
HETATM   23  C11 UNL     1      51.370   4.737 107.086  1.00  0.00     0.123 C 
ENDBRANCH  13  17
ENDBRANCH   8  11
ENDBRANCH   1   7
BRANCH   2  24
HETATM   24  N4  UNL     1      48.793   2.493 101.916  1.00  0.00    -0.380 N 
HETATM   25  C14 UNL     1      48.222   3.864 101.881  1.00  0.00     0.123 C 
HETATM   26  C15 UNL     1      47.875   4.288 100.452  1.00  0.00     0.029 C 
HETATM   27  C16 UNL     1      49.087   4.153  99.556  1.00  0.00    -0.037 A 
HETATM   28  C17 UNL     1      50.003   5.347  99.383  1.00  0.00     0.010 A 
HETATM   29  C18 UNL     1      49.106   4.922  98.253  1.00  0.00     0.010 A 
HETATM   30  C19 UNL     1      49.679   2.761  99.570  1.00  0.00     0.029 C 
HETATM   31  C20 UNL     1      49.934   2.268 101.002  1.00  0.00     0.123 C 
ENDBRANCH   2  24
BRANCH   4  32
HETATM   32  N5  UNL     1      45.531  -0.803 100.328  1.00  0.00    -0.186 NA
HETATM   33  H28 UNL     1      45.076  -0.169  99.664  1.00  0.00     0.146 HD
BRANCH  32  34
HETATM   34  S1  UNL     1      46.417  -1.953  99.448  1.00  0.00     0.215 S 
HETATM   35  O4  UNL     1      47.017  -1.213  98.356  1.00  0.00    -0.211 OA
HETATM   36  O5  UNL     1      47.233  -2.726 100.358  1.00  0.00    -0.211 OA
BRANCH  34  37
HETATM   37  C23 UNL     1      45.133  -2.994  98.783  1.00  0.00     0.183 C 
BRANCH  37  38
HETATM   38  C24 UNL     1      44.687  -4.049  99.771  1.00  0.00     0.180 C 
BRANCH  38  39
HETATM   39  O3  UNL     1      44.346  -3.437 101.013  1.00  0.00    -0.400 OA
HETATM   40  H33 UNL     1      43.431  -3.681 101.232  1.00  0.00     0.209 HD
ENDBRANCH  38  39
ENDBRANCH  37  38
ENDBRANCH  34  37
ENDBRANCH  32  34
ENDBRANCH   4  32
TORSDOF 9
ENDMDL
