MODEL 1
REMARK VINA RESULT:      -8.7      0.000      0.000
REMARK  2 active torsions:
REMARK  status: ('A' for Active; 'I' for Inactive)
REMARK    1  A    between atoms: C5_5  and  C7_7 
REMARK    2  A    between atoms: C11_12  and  C15_17 
ROOT
HETATM    1  C1  UNL     1      48.911  -0.725 102.634  1.00  0.00    -0.028 A 
HETATM    2  C2  UNL     1      48.543  -1.083 103.941  1.00  0.00     0.016 A 
HETATM    3  C3  UNL     1      47.855  -2.286 104.146  1.00  0.00     0.025 A 
HETATM    4  C4  UNL     1      47.461  -3.083 103.068  1.00  0.00     0.017 A 
HETATM    5  C5  UNL     1      47.770  -2.702 101.761  1.00  0.00     0.010 A 
HETATM    6  C6  UNL     1      48.495  -1.525 101.548  1.00  0.00     0.024 A 
HETATM    7  C9  UNL     1      49.724   0.527 102.372  1.00  0.00     0.049 C 
HETATM    8  C10 UNL     1      50.233   1.222 103.649  1.00  0.00     0.023 C 
HETATM    9  C11 UNL     1      49.243   1.070 104.805  1.00  0.00     0.100 C 
HETATM   10  N1  UNL     1      48.959  -0.345 105.061  1.00  0.00    -0.283 NA
HETATM   11  C12 UNL     1      51.024   0.250 101.660  1.00  0.00    -0.021 C 
HETATM   12  C13 UNL     1      52.075   0.325 102.485  1.00  0.00    -0.029 C 
HETATM   13  C14 UNL     1      51.647   0.658 103.878  1.00  0.00     0.034 C 
HETATM   14  H10 UNL     1      48.324  -0.474 105.846  1.00  0.00     0.128 HD
ENDROOT
BRANCH   9  15
HETATM   15  C15 UNL     1      49.726   1.764 106.076  1.00  0.00    -0.020 A 
HETATM   16  C16 UNL     1      49.859   1.023 107.272  1.00  0.00     0.050 A 
HETATM   17  C17 UNL     1      50.316   1.657 108.408  1.00  0.00     0.105 A 
HETATM   18  C18 UNL     1      50.650   2.988 108.406  1.00  0.00     0.106 A 
HETATM   19  O2  UNL     1      50.492   1.080 109.625  1.00  0.00    -0.323 OA
HETATM   20  C19 UNL     1      50.550   3.756 107.269  1.00  0.00     0.059 A 
HETATM   21  O3  UNL     1      51.077   3.418 109.622  1.00  0.00    -0.323 OA
HETATM   22  C20 UNL     1      50.089   3.138 106.096  1.00  0.00     0.021 A 
HETATM   23 BR1  UNL     1      49.989   4.247 104.552  1.00  0.00    -0.050 Br
HETATM   24  C21 UNL     1      50.975   2.202 110.392  1.00  0.00     0.352 A 
ENDBRANCH   9  15
BRANCH   5  25
HETATM   25  C7  UNL     1      47.324  -3.581 100.638  1.00  0.00     0.155 C 
HETATM   26  C8  UNL     1      47.784  -5.013 100.606  1.00  0.00     0.096 C 
HETATM   27  O1  UNL     1      46.595  -3.128  99.758  1.00  0.00    -0.293 OA
ENDBRANCH   5  25
TORSDOF 2
ENDMDL
