MODEL 1
REMARK VINA RESULT:      -6.7      0.000      0.000
REMARK  15 active torsions:
REMARK  status: ('A' for Active; 'I' for Inactive)
REMARK    1  A    between atoms: C2_2  and  O2_13 
REMARK    2  A    between atoms: C3_3  and  C12_14 
REMARK    3  A    between atoms: C4_4  and  C6_6 
REMARK    4  A    between atoms: C6_6  and  C7_7 
REMARK    5  A    between atoms: C8_8  and  C9_9 
REMARK    6  A    between atoms: C9_9  and  C10_10 
REMARK    7  A    between atoms: C10_10  and  C11_11 
REMARK    8  A    between atoms: C11_11  and  C20_23 
REMARK    9  A    between atoms: C13_15  and  C14_16 
REMARK   10  A    between atoms: C14_16  and  C15_17 
REMARK   11  A    between atoms: C14_16  and  O3_22 
REMARK   12  A    between atoms: C15_17  and  C16_18 
REMARK   13  A    between atoms: C16_18  and  C17_19 
REMARK   14  A    between atoms: C17_19  and  C18_20 
REMARK   15  A    between atoms: C20_23  and  O5_25 
ROOT
HETATM    1  C1  UNL     1      49.081   4.512 104.077  1.00  0.00     0.111 C 
HETATM    2  C2  UNL     1      50.315   5.013 104.812  1.00  0.00     0.133 C 
HETATM    3  C3  UNL     1      51.036   3.763 105.358  1.00  0.00     0.048 C 
HETATM    4  C4  UNL     1      50.719   2.622 104.363  1.00  0.00     0.069 C 
HETATM    5  C5  UNL     1      49.501   3.139 103.634  1.00  0.00     0.134 C 
HETATM    6  O1  UNL     1      48.878   2.486 102.803  1.00  0.00    -0.297 OA
ENDROOT
BRANCH   3   7
HETATM    7  C12 UNL     1      50.604   3.532 106.799  1.00  0.00    -0.020 C 
HETATM    8  C13 UNL     1      51.368   3.523 107.904  1.00  0.00     0.001 C 
BRANCH   8   9
HETATM    9  C14 UNL     1      50.834   3.269 109.287  1.00  0.00     0.140 C 
BRANCH   9  10
HETATM   10  C15 UNL     1      49.637   2.309 109.304  1.00  0.00     0.036 C 
BRANCH  10  11
HETATM   11  C16 UNL     1      50.049   0.833 109.315  1.00  0.00     0.003 C 
BRANCH  11  12
HETATM   12  C17 UNL     1      49.961   0.166 107.938  1.00  0.00    -0.000 C 
BRANCH  12  13
HETATM   13  C18 UNL     1      48.752   0.619 107.118  1.00  0.00    -0.005 C 
HETATM   14  C19 UNL     1      47.911  -0.567 106.671  1.00  0.00     0.005 C 
ENDBRANCH  12  13
ENDBRANCH  11  12
ENDBRANCH  10  11
ENDBRANCH   9  10
BRANCH   9  15
HETATM   15  O3  UNL     1      51.888   2.699 110.056  1.00  0.00    -0.392 OA
HETATM   16  H31 UNL     1      51.528   2.458 110.925  1.00  0.00     0.210 HD
ENDBRANCH   9  15
ENDBRANCH   8   9
ENDBRANCH   3   7
BRANCH   2  17
HETATM   17  O2  UNL     1      51.162   5.734 103.923  1.00  0.00    -0.394 OA
HETATM   18  H16 UNL     1      50.772   5.695 103.033  1.00  0.00     0.210 HD
ENDBRANCH   2  17
BRANCH   4  19
HETATM   19  C6  UNL     1      51.849   2.220 103.406  1.00  0.00     0.040 C 
BRANCH  19  20
HETATM   20  C7  UNL     1      51.890   0.782 102.972  1.00  0.00    -0.030 C 
HETATM   21  C8  UNL     1      51.512   0.271 101.788  1.00  0.00    -0.031 C 
BRANCH  21  22
HETATM   22  C9  UNL     1      50.908   1.002 100.623  1.00  0.00     0.027 C 
BRANCH  22  23
HETATM   23  C10 UNL     1      51.887   1.981  99.962  1.00  0.00     0.014 C 
BRANCH  23  24
HETATM   24  C11 UNL     1      51.223   3.187  99.293  1.00  0.00     0.110 C 
BRANCH  24  25
HETATM   25  C20 UNL     1      50.604   4.137 100.282  1.00  0.00     0.139 C 
HETATM   26  O4  UNL     1      51.178   4.846 101.091  1.00  0.00    -0.650 OA
BRANCH  25  27
HETATM   27  O5  UNL     1      49.258   4.118 100.225  1.00  0.00    -0.776 OA
HETATM   28  H32 UNL     1      48.979   4.511 101.078  1.00  0.00     0.167 HD
ENDBRANCH  25  27
ENDBRANCH  24  25
ENDBRANCH  23  24
ENDBRANCH  22  23
ENDBRANCH  21  22
ENDBRANCH  19  20
ENDBRANCH   4  19
TORSDOF 15
ENDMDL
