MODEL 1
REMARK VINA RESULT:      -7.1      0.000      0.000
REMARK  10 active torsions:
REMARK  status: ('A' for Active; 'I' for Inactive)
REMARK    1  A    between atoms: C2_2  and  O2_8 
REMARK    2  A    between atoms: C5_5  and  C6_6 
REMARK    3  A    between atoms: C5_5  and  O3_9 
REMARK    4  A    between atoms: C6_6  and  O6_12 
REMARK    5  A    between atoms: O4_10  and  P1_16 
REMARK    6  A    between atoms: O5_11  and  P2_20 
REMARK    7  A    between atoms: O6_12  and  P3_24 
REMARK    8  A    between atoms: P1_16  and  O9_19 
REMARK    9  A    between atoms: P2_20  and  O12_23 
REMARK   10  A    between atoms: P3_24  and  O15_27 
ROOT
HETATM    1  C1  UNL     1      50.809   3.490 105.590  1.00  0.00     0.181 A 
HETATM    2  C2  UNL     1      50.252   3.370 107.020  1.00  0.00     0.181 A 
HETATM    3  C3  UNL     1      50.106   1.908 107.476  1.00  0.00     0.198 A 
HETATM    4  C4  UNL     1      49.336   1.067 106.451  1.00  0.00     0.198 A 
HETATM    5  C5  UNL     1      49.795   1.253 104.994  1.00  0.00     0.182 A 
HETATM    6  C6  UNL     1      49.937   2.730 104.574  1.00  0.00     0.197 A 
HETATM    7  O1  UNL     1      52.157   2.982 105.513  1.00  0.00    -0.390 OA
HETATM    8  O4  UNL     1      49.500  -0.331 106.741  1.00  0.00    -0.279 OA
HETATM    9  O5  UNL     1      49.303   1.898 108.668  1.00  0.00    -0.279 OA
HETATM   10 NA1  UNL     1      50.028   1.963 106.359  1.00  0.00     0.000 Na
HETATM   11 NA2  UNL     1      50.028   1.963 106.359  1.00  0.00     0.000 Na
HETATM   12 NA3  UNL     1      50.028   1.963 106.359  1.00  0.00     0.000 Na
HETATM   13  H7  UNL     1      52.478   3.345 104.659  1.00  0.00     0.210 HD
ENDROOT
BRANCH   6  14
HETATM   14  O6  UNL     1      50.507   2.743 103.254  1.00  0.00    -0.279 OA
BRANCH  14  15
HETATM   15  P3  UNL     1      49.937   3.742 102.132  1.00  0.00     0.406 P 
HETATM   16  O13 UNL     1      50.504   5.122 102.331  1.00  0.00    -0.624 OA
HETATM   17  O14 UNL     1      49.816   3.105 100.779  1.00  0.00    -0.624 OA
BRANCH  15  18
HETATM   18  O15 UNL     1      48.453   3.936 102.746  1.00  0.00    -0.300 OA
HETATM   19  H12 UNL     1      48.449   4.903 102.869  1.00  0.00     0.223 HD
ENDBRANCH  15  18
ENDBRANCH  14  15
ENDBRANCH   6  14
BRANCH   2  20
HETATM   20  O2  UNL     1      51.083   4.144 107.908  1.00  0.00    -0.390 OA
HETATM   21  H8  UNL     1      51.527   4.858 107.373  1.00  0.00     0.210 HD
ENDBRANCH   2  20
BRANCH   5  22
HETATM   22  O3  UNL     1      48.828   0.597 104.135  1.00  0.00    -0.390 OA
HETATM   23  H9  UNL     1      48.914  -0.360 104.328  1.00  0.00     0.210 HD
ENDBRANCH   5  22
BRANCH   8  24
HETATM   24  P1  UNL     1      48.293  -1.187 107.384  1.00  0.00     0.406 P 
HETATM   25  O7  UNL     1      46.991  -0.774 106.750  1.00  0.00    -0.624 OA
HETATM   26  O8  UNL     1      48.449  -1.241 108.879  1.00  0.00    -0.624 OA
BRANCH  24  27
HETATM   27  O9  UNL     1      48.679  -2.645 106.823  1.00  0.00    -0.300 OA
HETATM   28  H10 UNL     1      47.837  -3.118 106.648  1.00  0.00     0.223 HD
ENDBRANCH  24  27
ENDBRANCH   8  24
BRANCH   9  29
HETATM   29  P2  UNL     1      50.024   1.775 110.107  1.00  0.00     0.406 P 
HETATM   30  O10 UNL     1      51.293   0.990 109.918  1.00  0.00    -0.624 OA
HETATM   31  O11 UNL     1      49.996   3.129 110.760  1.00  0.00    -0.624 OA
BRANCH  29  32
HETATM   32  O12 UNL     1      48.928   0.861 110.847  1.00  0.00    -0.300 OA
HETATM   33  H11 UNL     1      48.403   0.412 110.146  1.00  0.00     0.223 HD
ENDBRANCH  29  32
ENDBRANCH   9  29
TORSDOF 10
ENDMDL
