MODEL 1
REMARK VINA RESULT:      -7.5      0.000      0.000
REMARK  7 active torsions:
REMARK  status: ('A' for Active; 'I' for Inactive)
REMARK    1  A    between atoms: C2_2  and  O1_7 
REMARK    2  A    between atoms: C8_10  and  S1_12 
REMARK    3  A    between atoms: S1_12  and  C9_13 
REMARK    4  A    between atoms: C9_13  and  C10_15 
REMARK    5  A    between atoms: C12_17  and  O3_22 
REMARK    6  A    between atoms: C13_18  and  C17_24 
REMARK    7  A    between atoms: C17_24  and  O4_25 
ROOT
HETATM    1  S1  UNL     1      50.889   5.039 104.888  1.00  0.00     0.091 S 
HETATM    2  O2  UNL     1      50.644   6.422 105.425  1.00  0.00    -0.249 OA
ENDROOT
BRANCH   1   3
HETATM    3  C8  UNL     1      50.558   3.939 106.273  1.00  0.00     0.198 A 
HETATM    4  N1  UNL     1      50.083   2.717 106.172  1.00  0.00    -0.220 NA
HETATM    5  C4  UNL     1      49.995   2.263 107.467  1.00  0.00     0.089 A 
HETATM    6  C3  UNL     1      49.552   1.027 107.957  1.00  0.00     0.070 A 
HETATM    7  C5  UNL     1      50.423   3.233 108.367  1.00  0.00     0.063 A 
HETATM    8  C2  UNL     1      49.551   0.800 109.341  1.00  0.00     0.070 A 
HETATM    9  C1  UNL     1      49.989   1.798 110.217  1.00  0.00     0.039 A 
HETATM   10  C6  UNL     1      50.435   3.043 109.749  1.00  0.00     0.035 A 
HETATM   11  N2  UNL     1      50.779   4.293 107.576  1.00  0.00    -0.331 N 
HETATM   12  H7  UNL     1      51.129   5.194 107.872  1.00  0.00     0.168 HD
BRANCH   8  13
HETATM   13  O1  UNL     1      49.099  -0.441 109.704  1.00  0.00    -0.356 OA
HETATM   14  C7  UNL     1      48.408  -1.195 108.715  1.00  0.00     0.210 C 
ENDBRANCH   8  13
ENDBRANCH   1   3
BRANCH   1  15
HETATM   15  C9  UNL     1      49.472   4.513 103.874  1.00  0.00     0.177 C 
BRANCH  15  16
HETATM   16  C10 UNL     1      49.901   3.972 102.533  1.00  0.00     0.054 A 
HETATM   17  C11 UNL     1      49.664   2.649 102.132  1.00  0.00    -0.003 A 
HETATM   18  C12 UNL     1      50.175   2.259 100.880  1.00  0.00     0.086 A 
HETATM   19  C15 UNL     1      48.939   1.661 103.003  1.00  0.00     0.053 C 
HETATM   20  C13 UNL     1      50.782   3.178 100.022  1.00  0.00     0.017 A 
HETATM   21  C14 UNL     1      50.943   4.463 100.511  1.00  0.00     0.129 A 
HETATM   22  N3  UNL     1      50.527   4.870 101.729  1.00  0.00    -0.263 NA
BRANCH  18  23
HETATM   23  O3  UNL     1      50.010   0.961 100.459  1.00  0.00    -0.355 OA
HETATM   24  C16 UNL     1      50.992   0.115 101.065  1.00  0.00     0.210 C 
ENDBRANCH  18  23
BRANCH  20  25
HETATM   25  C17 UNL     1      51.283   2.822  98.656  1.00  0.00     0.207 C 
BRANCH  25  26
HETATM   26  O4  UNL     1      52.435   1.990  98.742  1.00  0.00    -0.396 OA
HETATM   27  H19 UNL     1      52.802   2.116  99.635  1.00  0.00     0.209 HD
ENDBRANCH  25  26
ENDBRANCH  20  25
ENDBRANCH  15  16
ENDBRANCH   1  15
TORSDOF 7
ENDMDL
