MODEL 1
REMARK VINA RESULT:      -6.9      0.000      0.000
REMARK  16 active torsions:
REMARK  status: ('A' for Active; 'I' for Inactive)
REMARK    1  A    between atoms: C1_1  and  C5_5 
REMARK    2  A    between atoms: C2_2  and  C9_9 
REMARK    3  A    between atoms: C3_3  and  C6_6 
REMARK    4  A    between atoms: C4_4  and  C5_5 
REMARK    5  A    between atoms: C6_6  and  C7_7 
REMARK    6  A    between atoms: C8_8  and  C17_17 
REMARK    7  A    between atoms: C9_9  and  C10_10 
REMARK    8  A    between atoms: C11_11  and  C12_12 
REMARK    9  A    between atoms: C12_12  and  C13_13 
REMARK   10  A    between atoms: C13_13  and  C14_14 
REMARK   11  A    between atoms: C14_14  and  C15_15 
REMARK   12  A    between atoms: C17_17  and  C18_18 
REMARK   13  A    between atoms: C19_19  and  C20_20 
REMARK   14  A    between atoms: C20_20  and  C21_21 
REMARK   15  A    between atoms: C21_21  and  C22_22 
REMARK   16  A    between atoms: C22_22  and  O2_24 
ROOT
HETATM    1  C3  UNL     1      49.675  -0.117 106.864  1.00  0.00    -0.027 C 
HETATM    2  C4  UNL     1      49.090  -1.198 106.318  1.00  0.00    -0.027 C 
ENDROOT
BRANCH   1   3
HETATM    3  C6  UNL     1      49.151   0.742 107.977  1.00  0.00     0.053 C 
BRANCH   3   4
HETATM    4  C7  UNL     1      49.678   0.446 109.357  1.00  0.00    -0.027 C 
HETATM    5  C8  UNL     1      50.218   1.209 110.323  1.00  0.00    -0.027 C 
BRANCH   5   6
HETATM    6  C17 UNL     1      50.518   2.682 110.353  1.00  0.00     0.053 C 
BRANCH   6   7
HETATM    7  C18 UNL     1      51.694   3.001 109.470  1.00  0.00    -0.027 C 
HETATM    8  C19 UNL     1      51.685   3.561 108.248  1.00  0.00    -0.030 C 
BRANCH   8   9
HETATM    9  C20 UNL     1      50.487   3.990 107.446  1.00  0.00     0.037 C 
BRANCH   9  10
HETATM   10  C21 UNL     1      50.749   3.949 105.944  1.00  0.00     0.113 C 
BRANCH  10  11
HETATM   11  C22 UNL     1      50.685   5.319 105.329  1.00  0.00     0.139 C 
HETATM   12  O1  UNL     1      50.519   6.374 105.923  1.00  0.00    -0.650 OA
BRANCH  11  13
HETATM   13  O2  UNL     1      50.842   5.300 103.990  1.00  0.00    -0.776 OA
HETATM   14  H34 UNL     1      51.173   6.199 103.778  1.00  0.00     0.167 HD
ENDBRANCH  11  13
ENDBRANCH  10  11
ENDBRANCH   9  10
ENDBRANCH   8   9
ENDBRANCH   6   7
ENDBRANCH   5   6
ENDBRANCH   3   4
ENDBRANCH   1   3
BRANCH   2  15
HETATM   15  C5  UNL     1      47.769  -1.815 106.685  1.00  0.00     0.053 C 
BRANCH  15  16
HETATM   16  C1  UNL     1      46.650  -0.830 106.505  1.00  0.00    -0.027 C 
HETATM   17  C2  UNL     1      46.280  -0.191 105.382  1.00  0.00    -0.027 C 
BRANCH  17  18
HETATM   18  C9  UNL     1      46.878  -0.312 104.010  1.00  0.00     0.053 C 
BRANCH  18  19
HETATM   19  C10 UNL     1      47.578   0.955 103.610  1.00  0.00    -0.027 C 
HETATM   20  C11 UNL     1      48.821   1.087 103.120  1.00  0.00    -0.030 C 
BRANCH  20  21
HETATM   21  C12 UNL     1      49.835   0.003 102.898  1.00  0.00     0.027 C 
BRANCH  21  22
HETATM   22  C13 UNL     1      51.247   0.405 103.334  1.00  0.00     0.004 C 
BRANCH  22  23
HETATM   23  C14 UNL     1      51.754   1.664 102.621  1.00  0.00    -0.000 C 
BRANCH  23  24
HETATM   24  C15 UNL     1      51.808   1.456 101.107  1.00  0.00    -0.005 C 
HETATM   25  C16 UNL     1      52.278   2.712 100.388  1.00  0.00     0.005 C 
ENDBRANCH  23  24
ENDBRANCH  22  23
ENDBRANCH  21  22
ENDBRANCH  20  21
ENDBRANCH  18  19
ENDBRANCH  17  18
ENDBRANCH  15  16
ENDBRANCH   2  15
TORSDOF 16
ENDMDL
