MODEL 1
REMARK VINA RESULT:      -8.4      0.000      0.000
REMARK  7 active torsions:
REMARK  status: ('A' for Active; 'I' for Inactive)
REMARK    1  A    between atoms: C1_1  and  O1_9 
REMARK    2  A    between atoms: C10_12  and  C13_15 
REMARK    3  A    between atoms: C13_15  and  C14_16 
REMARK    4  A    between atoms: C14_16  and  C15_17 
REMARK    5  A    between atoms: C15_17  and  C16_18 
REMARK    6  A    between atoms: C16_18  and  C17_19 
REMARK    7  A    between atoms: C17_19  and  O3_22 
ROOT
HETATM    1  C1  UNL     1      49.877   0.939 109.222  1.00  0.00     0.078 A 
HETATM    2  C2  UNL     1      49.198   0.143 108.283  1.00  0.00    -0.020 A 
HETATM    3  C3  UNL     1      49.150   0.577 106.939  1.00  0.00    -0.019 A 
HETATM    4  C4  UNL     1      49.677   1.843 106.598  1.00  0.00     0.083 A 
HETATM    5  C5  UNL     1      50.280   2.663 107.565  1.00  0.00    -0.015 A 
HETATM    6  C6  UNL     1      50.427   2.187 108.884  1.00  0.00    -0.019 A 
HETATM    7  C7  UNL     1      48.492  -0.268 105.874  1.00  0.00     0.052 C 
HETATM    8  C8  UNL     1      48.559  -1.160 108.694  1.00  0.00     0.052 C 
HETATM    9  C9  UNL     1      51.106   3.022 109.941  1.00  0.00     0.052 C 
HETATM   10  O2  UNL     1      49.533   2.215 105.285  1.00  0.00    -0.339 OA
HETATM   11  C10 UNL     1      50.251   3.377 104.813  1.00  0.00     0.064 C 
HETATM   12  C11 UNL     1      50.195   4.490 105.863  1.00  0.00     0.043 C 
HETATM   13  C12 UNL     1      50.797   4.023 107.176  1.00  0.00     0.045 C 
HETATM   14  C19 UNL     1      49.446   3.818 103.578  1.00  0.00     0.046 C 
ENDROOT
BRANCH  11  15
HETATM   15  C13 UNL     1      51.678   2.914 104.412  1.00  0.00     0.038 C 
BRANCH  15  16
HETATM   16  C14 UNL     1      51.948   2.457 102.972  1.00  0.00     0.004 C 
BRANCH  16  17
HETATM   17  C15 UNL     1      52.270   0.972 102.805  1.00  0.00     0.015 C 
BRANCH  17  18
HETATM   18  C16 UNL     1      51.257   0.234 101.912  1.00  0.00     0.079 C 
HETATM   19  C18 UNL     1      49.921  -0.034 102.601  1.00  0.00     0.021 C 
BRANCH  18  20
HETATM   20  C17 UNL     1      51.030   1.021 100.640  1.00  0.00     0.143 C 
HETATM   21  O4  UNL     1      51.888   1.327  99.828  1.00  0.00    -0.650 OA
BRANCH  20  22
HETATM   22  O3  UNL     1      49.750   1.391 100.455  1.00  0.00    -0.776 OA
HETATM   23  H28 UNL     1      49.295   1.091 101.270  1.00  0.00     0.167 HD
ENDBRANCH  20  22
ENDBRANCH  18  20
ENDBRANCH  17  18
ENDBRANCH  16  17
ENDBRANCH  15  16
ENDBRANCH  11  15
BRANCH   1  24
HETATM   24  O1  UNL     1      50.026   0.524 110.521  1.00  0.00    -0.360 OA
HETATM   25  H7  UNL     1      50.028  -0.446 110.540  1.00  0.00     0.217 HD
ENDBRANCH   1  24
TORSDOF 7
ENDMDL
