MODEL 1
REMARK VINA RESULT:      -8.3      0.000      0.000
REMARK  7 active torsions:
REMARK  status: ('A' for Active; 'I' for Inactive)
REMARK    1  A    between atoms: O1_2  and  C2_3 
REMARK    2  A    between atoms: C10_11  and  C12_13 
REMARK    3  A    between atoms: C12_13  and  O2_14 
REMARK    4  A    between atoms: O2_14  and  C14_16 
REMARK    5  A    between atoms: C14_16  and  C15_17 
REMARK    6  A    between atoms: C15_17  and  C16_19 
REMARK    7  A    between atoms: C17_20  and  C18_21 
ROOT
HETATM    1  C12 UNL     1      49.453   3.380 102.870  1.00  0.00     0.271 C 
HETATM    2  C13 UNL     1      50.135   4.540 102.251  1.00  0.00     0.097 C 
HETATM    3  N1  UNL     1      50.681   5.442 101.762  1.00  0.00    -0.194 NA
ENDROOT
BRANCH   1   4
HETATM    4  C10 UNL     1      49.770   3.292 104.360  1.00  0.00    -0.014 A 
HETATM    5  C9  UNL     1      50.171   4.443 105.055  1.00  0.00     0.012 A 
HETATM    6  C8  UNL     1      50.448   4.388 106.424  1.00  0.00     0.013 A 
HETATM    7  C4  UNL     1      50.332   3.185 107.135  1.00  0.00    -0.023 A 
HETATM    8  C3  UNL     1      50.608   3.120 108.515  1.00  0.00     0.049 A 
HETATM    9  C5  UNL     1      49.924   2.021 106.451  1.00  0.00    -0.025 A 
HETATM   10  C2  UNL     1      50.485   1.915 109.211  1.00  0.00     0.069 A 
HETATM   11  C7  UNL     1      50.091   0.768 108.525  1.00  0.00     0.037 A 
HETATM   12  C6  UNL     1      49.810   0.816 107.158  1.00  0.00     0.015 A 
HETATM   13  C11 UNL     1      49.642   2.089 105.075  1.00  0.00     0.023 A 
BRANCH  10  14
HETATM   14  O1  UNL     1      50.722   1.728 110.545  1.00  0.00    -0.356 OA
HETATM   15  C1  UNL     1      50.356   2.790 111.421  1.00  0.00     0.210 C 
ENDBRANCH  10  14
ENDBRANCH   1   4
BRANCH   1  16
HETATM   16  O2  UNL     1      48.020   3.475 102.713  1.00  0.00    -0.296 OA
BRANCH  16  17
HETATM   17  C14 UNL     1      47.497   2.661 101.755  1.00  0.00     0.263 C 
HETATM   18  O3  UNL     1      47.048   3.052 100.688  1.00  0.00    -0.265 OA
BRANCH  17  19
HETATM   19  C15 UNL     1      47.594   1.221 102.198  1.00  0.00     0.146 C 
BRANCH  19  20
HETATM   20  C16 UNL     1      47.804   0.277 101.052  1.00  0.00     0.165 A 
HETATM   21  C17 UNL     1      49.180  -0.168 100.592  1.00  0.00     0.184 A 
HETATM   22  O4  UNL     1      48.348  -0.990 101.436  1.00  0.00    -0.370 OA
BRANCH  21  23
HETATM   23  C18 UNL     1      50.433   0.415 101.191  1.00  0.00    -0.027 A 
HETATM   24  C19 UNL     1      51.157   1.431 100.544  1.00  0.00     0.010 A 
HETATM   25  C20 UNL     1      52.320   1.968 101.101  1.00  0.00     0.001 A 
HETATM   26  C21 UNL     1      52.782   1.503 102.329  1.00  0.00     0.000 A 
HETATM   27  C22 UNL     1      52.081   0.502 102.996  1.00  0.00     0.001 A 
HETATM   28  C23 UNL     1      50.919  -0.034 102.432  1.00  0.00     0.010 A 
ENDBRANCH  21  23
ENDBRANCH  19  20
ENDBRANCH  17  19
ENDBRANCH  16  17
ENDBRANCH   1  16
TORSDOF 7
ENDMDL
