MODEL 1
REMARK VINA RESULT:      -7.5      0.000      0.000
REMARK  15 active torsions:
REMARK  status: ('A' for Active; 'I' for Inactive)
REMARK    1  A    between atoms: C2_2  and  O2_14 
REMARK    2  A    between atoms: C3_3  and  C13_15 
REMARK    3  A    between atoms: C4_4  and  C6_6 
REMARK    4  A    between atoms: C5_5  and  O1_13 
REMARK    5  A    between atoms: C6_6  and  C7_7 
REMARK    6  A    between atoms: C8_8  and  C9_9 
REMARK    7  A    between atoms: C9_9  and  C10_10 
REMARK    8  A    between atoms: C10_10  and  C11_11 
REMARK    9  A    between atoms: C11_11  and  C12_12 
REMARK   10  A    between atoms: C12_12  and  O6_28 
REMARK   11  A    between atoms: C14_16  and  C15_17 
REMARK   12  A    between atoms: C15_17  and  C16_18 
REMARK   13  A    between atoms: C15_17  and  O3_19 
REMARK   14  A    between atoms: C16_18  and  O4_20 
REMARK   15  A    between atoms: O4_20  and  C17_21 
ROOT
HETATM    1  C1  UNL     1      51.146   2.082 110.438  1.00  0.00     0.064 C 
HETATM    2  C2  UNL     1      51.520   3.102 109.377  1.00  0.00     0.128 C 
HETATM    3  C3  UNL     1      50.711   2.663 108.136  1.00  0.00     0.043 C 
HETATM    4  C4  UNL     1      49.442   1.961 108.709  1.00  0.00     0.028 C 
HETATM    5  C5  UNL     1      49.649   1.950 110.238  1.00  0.00     0.125 C 
ENDROOT
BRANCH   3   6
HETATM    6  C13 UNL     1      50.546   3.810 107.154  1.00  0.00    -0.021 C 
HETATM    7  C14 UNL     1      49.972   3.791 105.938  1.00  0.00     0.003 C 
BRANCH   7   8
HETATM    8  C15 UNL     1      49.840   4.944 104.971  1.00  0.00     0.165 C 
BRANCH   8   9
HETATM    9  C16 UNL     1      50.266   4.686 103.513  1.00  0.00     0.211 C 
BRANCH   9  10
HETATM   10  O4  UNL     1      51.447   3.873 103.488  1.00  0.00    -0.348 OA
BRANCH  10  11
HETATM   11  C17 UNL     1      51.333   2.674 102.844  1.00  0.00     0.068 A 
HETATM   12  C18 UNL     1      50.327   2.368 101.926  1.00  0.00     0.037 A 
HETATM   13  C19 UNL     1      50.276   1.096 101.346  1.00  0.00     0.003 A 
HETATM   14  C20 UNL     1      51.219   0.127 101.696  1.00  0.00     0.000 A 
HETATM   15  C21 UNL     1      52.208   0.423 102.634  1.00  0.00     0.003 A 
HETATM   16  C22 UNL     1      52.257   1.692 103.214  1.00  0.00     0.037 A 
ENDBRANCH  10  11
ENDBRANCH   9  10
ENDBRANCH   8   9
BRANCH   8  17
HETATM   17  O3  UNL     1      50.595   6.028 105.520  1.00  0.00    -0.390 OA
HETATM   18  H24 UNL     1      51.334   6.211 104.917  1.00  0.00     0.210 HD
ENDBRANCH   8  17
ENDBRANCH   7   8
ENDBRANCH   3   6
BRANCH   2  19
HETATM   19  O2  UNL     1      52.920   3.065 109.141  1.00  0.00    -0.395 OA
HETATM   20  H18 UNL     1      53.338   2.662 109.920  1.00  0.00     0.210 HD
ENDBRANCH   2  19
BRANCH   4  21
HETATM   21  C6  UNL     1      49.147   0.599 108.040  1.00  0.00     0.034 C 
BRANCH  21  22
HETATM   22  C7  UNL     1      50.177   0.095 107.058  1.00  0.00    -0.030 C 
HETATM   23  C8  UNL     1      50.091   0.057 105.716  1.00  0.00    -0.031 C 
BRANCH  23  24
HETATM   24  C9  UNL     1      48.940   0.488 104.851  1.00  0.00     0.027 C 
BRANCH  24  25
HETATM   25  C10 UNL     1      48.336  -0.665 104.034  1.00  0.00     0.013 C 
BRANCH  25  26
HETATM   26  C11 UNL     1      47.450  -1.619 104.840  1.00  0.00     0.111 C 
BRANCH  26  27
HETATM   27  C12 UNL     1      46.515  -0.896 105.779  1.00  0.00     0.258 C 
HETATM   28  O5  UNL     1      45.822   0.066 105.477  1.00  0.00    -0.265 OA
BRANCH  27  29
HETATM   29  O6  UNL     1      46.582  -1.451 107.022  1.00  0.00    -0.326 OA
HETATM   30  C23 UNL     1      47.395  -2.621 107.088  1.00  0.00     0.213 C 
ENDBRANCH  27  29
ENDBRANCH  26  27
ENDBRANCH  25  26
ENDBRANCH  24  25
ENDBRANCH  23  24
ENDBRANCH  21  22
ENDBRANCH   4  21
BRANCH   5  31
HETATM   31  O1  UNL     1      49.095   0.843 110.909  1.00  0.00    -0.395 OA
HETATM   32  H17 UNL     1      48.341   0.514 110.391  1.00  0.00     0.210 HD
ENDBRANCH   5  31
TORSDOF 15
ENDMDL
