MODEL 1
REMARK VINA RESULT:      -8.9      0.000      0.000
REMARK  7 active torsions:
REMARK  status: ('A' for Active; 'I' for Inactive)
REMARK    1  A    between atoms: C4_4  and  O1_8 
REMARK    2  A    between atoms: O1_8  and  C7_9 
REMARK    3  A    between atoms: C12_14  and  C13_16 
REMARK       I    between atoms: C13_16  and  N1_17 
REMARK    4  A    between atoms: N1_17  and  C14_19 
REMARK    5  A    between atoms: C14_19  and  C15_20 
REMARK    6  A    between atoms: C19_24  and  C22_27 
REMARK    7  A    between atoms: C22_27  and  O4_29 
ROOT
HETATM    1  C13 UNL     1      50.385   2.391 103.078  1.00  0.00     0.255 C 
HETATM    2  N1  UNL     1      49.939   2.872 104.286  1.00  0.00    -0.349 N 
HETATM    3  O2  UNL     1      51.361   2.839 102.485  1.00  0.00    -0.268 OA
HETATM    4  H8  UNL     1      49.216   2.349 104.764  1.00  0.00     0.163 HD
ENDROOT
BRANCH   1   5
HETATM    5  C12 UNL     1      49.614   1.273 102.471  1.00  0.00     0.067 A 
HETATM    6  C7  UNL     1      49.345   0.066 103.137  1.00  0.00     0.091 A 
HETATM    7  C8  UNL     1      48.612  -0.946 102.506  1.00  0.00     0.040 A 
HETATM    8  C9  UNL     1      48.180  -0.773 101.191  1.00  0.00     0.026 A 
HETATM    9  C10 UNL     1      48.474   0.411 100.515  1.00  0.00     0.035 A 
HETATM   10  C11 UNL     1      49.188   1.430 101.144  1.00  0.00     0.043 A 
HETATM   11 CL1  UNL     1      47.948   0.615  98.890  1.00  0.00    -0.084 Cl
BRANCH   6  12
HETATM   12  O1  UNL     1      49.746  -0.135 104.437  1.00  0.00    -0.310 OA
BRANCH  12  13
HETATM   13  C4  UNL     1      48.774  -0.480 105.355  1.00  0.00     0.076 A 
HETATM   14  C3  UNL     1      49.184  -1.364 106.360  1.00  0.00     0.040 A 
HETATM   15  C2  UNL     1      48.271  -1.810 107.317  1.00  0.00     0.045 A 
HETATM   16  C1  UNL     1      46.952  -1.377 107.257  1.00  0.00     0.116 A 
HETATM   17  C6  UNL     1      46.530  -0.508 106.257  1.00  0.00     0.045 A 
HETATM   18  F1  UNL     1      46.071  -1.811 108.168  1.00  0.00    -0.206 F 
HETATM   19  C5  UNL     1      47.441  -0.060 105.298  1.00  0.00     0.040 A 
ENDBRANCH  12  13
ENDBRANCH   6  12
ENDBRANCH   1   5
BRANCH   2  20
HETATM   20  C14 UNL     1      50.760   3.743 105.114  1.00  0.00     0.114 C 
HETATM   21  C16 UNL     1      50.341   5.199 104.912  1.00  0.00     0.037 C 
BRANCH  20  22
HETATM   22  C15 UNL     1      50.678   3.253 106.553  1.00  0.00    -0.036 A 
HETATM   23  C17 UNL     1      49.693   2.307 106.891  1.00  0.00     0.010 A 
HETATM   24  C18 UNL     1      49.522   1.886 108.213  1.00  0.00     0.019 A 
HETATM   25  C19 UNL     1      50.331   2.412 109.224  1.00  0.00     0.037 A 
HETATM   26  C20 UNL     1      51.319   3.349 108.901  1.00  0.00     0.019 A 
HETATM   27  C21 UNL     1      51.487   3.770 107.578  1.00  0.00     0.010 A 
BRANCH  25  28
HETATM   28  C22 UNL     1      50.162   2.036 110.647  1.00  0.00     0.176 C 
HETATM   29  O3  UNL     1      49.335   1.256 111.083  1.00  0.00    -0.646 OA
BRANCH  28  30
HETATM   30  O4  UNL     1      51.046   2.644 111.458  1.00  0.00    -0.773 OA
HETATM   31  H17 UNL     1      50.682   3.547 111.567  1.00  0.00     0.167 HD
ENDBRANCH  28  30
ENDBRANCH  25  28
ENDBRANCH  20  22
ENDBRANCH   2  20
TORSDOF 7
ENDMDL
