MODEL 1
REMARK VINA RESULT:      -9.3      0.000      0.000
REMARK  6 active torsions:
REMARK  status: ('A' for Active; 'I' for Inactive)
REMARK       I    between atoms: N1_5  and  C14_16 
REMARK       I    between atoms: C14_16  and  N2_17 
REMARK    1  A    between atoms: N2_17  and  N3_19 
REMARK       I    between atoms: N3_19  and  C15_20 
REMARK    2  A    between atoms: C15_20  and  C16_21 
REMARK    3  A    between atoms: C16_21  and  C17_23 
REMARK    4  A    between atoms: C17_23  and  S1_24 
REMARK    5  A    between atoms: S1_24  and  C18_25 
REMARK    6  A    between atoms: C18_25  and  C19_26 
ROOT
HETATM    1  O1  UNL     1      50.148   3.286 106.154  1.00  0.00    -0.308 OA
HETATM    2  C1  UNL     1      50.537   2.821 107.385  1.00  0.00     0.084 A 
HETATM    3  C2  UNL     1      49.820   1.783 107.975  1.00  0.00    -0.006 A 
HETATM    4  C3  UNL     1      48.704   1.189 107.177  1.00  0.00     0.175 C 
HETATM    5  N1  UNL     1      49.207   0.383 106.062  1.00  0.00    -0.296 N 
HETATM    6  C4  UNL     1      49.963   1.062 105.014  1.00  0.00     0.074 A 
HETATM    7  C5  UNL     1      50.360   2.424 105.094  1.00  0.00     0.103 A 
HETATM    8  C6  UNL     1      50.378   0.367 103.861  1.00  0.00     0.056 A 
HETATM    9  C7  UNL     1      51.068   1.000 102.818  1.00  0.00     0.036 A 
HETATM   10  C8  UNL     1      51.382   2.347 102.890  1.00  0.00     0.026 A 
HETATM   11  C9  UNL     1      51.030   3.056 104.030  1.00  0.00     0.041 A 
HETATM   12  C10 UNL     1      51.582   3.450 108.057  1.00  0.00     0.038 A 
HETATM   13  C11 UNL     1      51.941   3.005 109.328  1.00  0.00     0.003 A 
HETATM   14  C12 UNL     1      51.247   1.945 109.919  1.00  0.00     0.001 A 
HETATM   15  C13 UNL     1      50.186   1.333 109.247  1.00  0.00     0.012 A 
HETATM   16  C14 UNL     1      48.778  -0.948 105.954  1.00  0.00     0.319 C 
HETATM   17  N2  UNL     1      48.512  -1.558 107.177  1.00  0.00    -0.152 NA
HETATM   18  O2  UNL     1      48.624  -1.593 104.917  1.00  0.00    -0.252 OA
HETATM   19 CL1  UNL     1      51.532   0.097 101.427  1.00  0.00    -0.084 Cl
HETATM   20  H10 UNL     1      49.172  -1.328 107.921  1.00  0.00     0.157 HD
ENDROOT
BRANCH  17  21
HETATM   21  N3  UNL     1      48.233  -2.951 107.119  1.00  0.00    -0.283 N 
HETATM   22  C15 UNL     1      47.646  -3.497 108.246  1.00  0.00     0.233 C 
HETATM   23  O3  UNL     1      47.165  -2.805 109.140  1.00  0.00    -0.272 OA
HETATM   24  H11 UNL     1      48.942  -3.488 106.615  1.00  0.00     0.184 HD
BRANCH  22  25
HETATM   25  C16 UNL     1      47.667  -5.009 108.252  1.00  0.00     0.114 C 
BRANCH  25  26
HETATM   26  C17 UNL     1      48.005  -5.554 106.872  1.00  0.00     0.083 C 
BRANCH  26  27
HETATM   27  S1  UNL     1      49.107  -7.003 106.971  1.00  0.00    -0.162 SA
BRANCH  27  28
HETATM   28  C18 UNL     1      50.717  -6.176 106.757  1.00  0.00     0.138 C 
BRANCH  28  29
HETATM   29  C19 UNL     1      51.302  -6.457 105.421  1.00  0.00     0.061 A 
HETATM   30  C20 UNL     1      50.769  -6.745 104.180  1.00  0.00     0.035 A 
HETATM   31  C21 UNL     1      51.865  -6.886 103.294  1.00  0.00     0.027 A 
HETATM   32  C22 UNL     1      52.995  -6.667 104.044  1.00  0.00     0.142 A 
HETATM   33  O4  UNL     1      52.666  -6.401 105.335  1.00  0.00    -0.326 OA
ENDBRANCH  28  29
ENDBRANCH  27  28
ENDBRANCH  26  27
ENDBRANCH  25  26
ENDBRANCH  22  25
ENDBRANCH  17  21
TORSDOF 6
ENDMDL
