MODEL 1
REMARK VINA RESULT:      -7.0      0.000      0.000
REMARK  15 active torsions:
REMARK  status: ('A' for Active; 'I' for Inactive)
REMARK    1  A    between atoms: C1_1  and  C3_3 
REMARK    2  A    between atoms: C2_2  and  C6_6 
REMARK    3  A    between atoms: C3_3  and  C4_4 
REMARK    4  A    between atoms: C5_5  and  C9_9 
REMARK    5  A    between atoms: C6_6  and  C7_7 
REMARK    6  A    between atoms: C8_8  and  C12_12 
REMARK    7  A    between atoms: C9_9  and  C10_10 
REMARK    8  A    between atoms: C11_11  and  C16_16 
REMARK    9  A    between atoms: C12_12  and  C13_13 
REMARK   10  A    between atoms: C13_13  and  C14_14 
REMARK   11  A    between atoms: C14_14  and  C15_15 
REMARK   12  A    between atoms: C15_15  and  C21_21 
REMARK   13  A    between atoms: C16_16  and  C17_17 
REMARK   14  A    between atoms: C18_18  and  C19_19 
REMARK   15  A    between atoms: C21_21  and  O2_23 
ROOT
HETATM    1  C1  UNL     1      51.708   3.252 109.746  1.00  0.00    -0.027 C 
HETATM    2  C2  UNL     1      50.735   2.869 110.591  1.00  0.00    -0.027 C 
ENDROOT
BRANCH   1   3
HETATM    3  C3  UNL     1      51.732   3.095 108.251  1.00  0.00     0.053 C 
BRANCH   3   4
HETATM    4  C4  UNL     1      50.771   4.050 107.600  1.00  0.00    -0.027 C 
HETATM    5  C5  UNL     1      50.341   4.034 106.327  1.00  0.00    -0.027 C 
BRANCH   5   6
HETATM    6  C9  UNL     1      50.676   3.040 105.254  1.00  0.00     0.053 C 
BRANCH   6   7
HETATM    7  C10 UNL     1      49.680   3.092 104.133  1.00  0.00    -0.027 C 
HETATM    8  C11 UNL     1      49.198   2.068 103.405  1.00  0.00    -0.027 C 
BRANCH   8   9
HETATM    9  C16 UNL     1      49.513   0.607 103.551  1.00  0.00     0.053 C 
BRANCH   9  10
HETATM   10  C17 UNL     1      50.991   0.357 103.455  1.00  0.00    -0.027 C 
HETATM   11  C18 UNL     1      51.748   0.318 102.345  1.00  0.00    -0.031 C 
BRANCH  11  12
HETATM   12  C19 UNL     1      51.299   0.543 100.930  1.00  0.00     0.022 C 
HETATM   13  C20 UNL     1      51.634   1.953 100.464  1.00  0.00     0.009 C 
ENDBRANCH  11  12
ENDBRANCH   9  10
ENDBRANCH   8   9
ENDBRANCH   6   7
ENDBRANCH   5   6
ENDBRANCH   3   4
ENDBRANCH   1   3
BRANCH   2  14
HETATM   14  C6  UNL     1      49.459   2.150 110.251  1.00  0.00     0.053 C 
BRANCH  14  15
HETATM   15  C7  UNL     1      49.713   0.697 109.967  1.00  0.00    -0.027 C 
HETATM   16  C8  UNL     1      49.551   0.040 108.806  1.00  0.00    -0.030 C 
BRANCH  16  17
HETATM   17  C12 UNL     1      49.094   0.599 107.488  1.00  0.00     0.027 C 
BRANCH  17  18
HETATM   18  C13 UNL     1      48.194  -0.361 106.702  1.00  0.00     0.004 C 
BRANCH  18  19
HETATM   19  C14 UNL     1      48.570  -1.849 106.746  1.00  0.00     0.011 C 
BRANCH  19  20
HETATM   20  C15 UNL     1      47.420  -2.779 107.128  1.00  0.00     0.110 C 
BRANCH  20  21
HETATM   21  C21 UNL     1      46.854  -2.532 108.498  1.00  0.00     0.139 C 
HETATM   22  O1  UNL     1      45.809  -1.951 108.745  1.00  0.00    -0.650 OA
BRANCH  21  23
HETATM   23  O2  UNL     1      47.645  -2.977 109.490  1.00  0.00    -0.776 OA
HETATM   24  H32 UNL     1      47.770  -3.928 109.287  1.00  0.00     0.167 HD
ENDBRANCH  21  23
ENDBRANCH  20  21
ENDBRANCH  19  20
ENDBRANCH  18  19
ENDBRANCH  17  18
ENDBRANCH  16  17
ENDBRANCH  14  15
ENDBRANCH   2  14
TORSDOF 15
ENDMDL
