MODEL 1
REMARK VINA RESULT:      -9.1      0.000      0.000
REMARK  7 active torsions:
REMARK  status: ('A' for Active; 'I' for Inactive)
REMARK    1  A    between atoms: C1_2  and  C9_13 
REMARK    2  A    between atoms: C4_6  and  N5_22 
REMARK    3  A    between atoms: N3_7  and  C6_10 
REMARK    4  A    between atoms: N5_22  and  C17_23 
REMARK    5  A    between atoms: C17_23  and  C18_24 
REMARK    6  A    between atoms: C18_24  and  C19_25 
REMARK    7  A    between atoms: C22_28  and  O1_31 
ROOT
HETATM    1  N1  UNL     1      48.737  -0.972 106.534  1.00  0.00    -0.214 NA
HETATM    2  C1  UNL     1      49.141   0.081 105.787  1.00  0.00     0.165 A 
HETATM    3  N2  UNL     1      49.138   0.170 104.437  1.00  0.00    -0.208 NA
HETATM    4  C2  UNL     1      48.666  -0.948 103.868  1.00  0.00     0.166 A 
HETATM    5  C3  UNL     1      48.226  -2.091 104.511  1.00  0.00     0.144 A 
HETATM    6  C4  UNL     1      48.277  -2.092 105.917  1.00  0.00     0.138 A 
HETATM    7  N3  UNL     1      48.514  -1.211 102.534  1.00  0.00    -0.320 N 
HETATM    8  C5  UNL     1      47.992  -2.475 102.423  1.00  0.00     0.212 A 
HETATM    9  N4  UNL     1      47.802  -3.035 103.599  1.00  0.00    -0.236 NA
ENDROOT
BRANCH   6  10
HETATM   10  N5  UNL     1      47.878  -3.214 106.655  1.00  0.00    -0.275 NA
HETATM   11  H14 UNL     1      47.394  -2.903 107.498  1.00  0.00     0.129 HD
BRANCH  10  12
HETATM   12  C17 UNL     1      48.912  -4.218 106.871  1.00  0.00     0.098 C 
BRANCH  12  13
HETATM   13  C18 UNL     1      48.611  -5.492 106.072  1.00  0.00     0.053 C 
BRANCH  13  14
HETATM   14  C19 UNL     1      49.801  -6.010 105.295  1.00  0.00    -0.057 A 
HETATM   15  C20 UNL     1      49.688  -6.296 103.926  1.00  0.00     0.010 A 
HETATM   16  C21 UNL     1      50.790  -6.760 103.204  1.00  0.00     0.037 A 
HETATM   17  C22 UNL     1      52.009  -6.935 103.854  1.00  0.00     0.065 A 
HETATM   18  C23 UNL     1      52.140  -6.655 105.208  1.00  0.00     0.037 A 
HETATM   19  C24 UNL     1      51.038  -6.192 105.929  1.00  0.00     0.010 A 
BRANCH  17  20
HETATM   20  O1  UNL     1      53.111  -7.385 103.189  1.00  0.00    -0.361 OA
HETATM   21  H23 UNL     1      53.434  -8.185 103.633  1.00  0.00     0.217 HD
ENDBRANCH  17  20
ENDBRANCH  13  14
ENDBRANCH  12  13
ENDBRANCH  10  12
ENDBRANCH   6  10
BRANCH   2  22
HETATM   22  C9  UNL     1      49.648   1.252 106.513  1.00  0.00     0.030 A 
HETATM   23  C10 UNL     1      50.063   2.375 105.819  1.00  0.00     0.066 A 
HETATM   24  S1  UNL     1      50.626   3.621 106.829  1.00  0.00    -0.100 SA
HETATM   25  C11 UNL     1      50.322   2.700 108.249  1.00  0.00     0.016 A 
HETATM   26  C12 UNL     1      49.792   1.439 107.947  1.00  0.00    -0.004 A 
HETATM   27  C13 UNL     1      50.554   3.113 109.578  1.00  0.00     0.019 A 
HETATM   28  C16 UNL     1      49.485   0.591 109.044  1.00  0.00     0.014 A 
HETATM   29  C15 UNL     1      49.713   0.995 110.363  1.00  0.00     0.001 A 
HETATM   30  C14 UNL     1      50.245   2.246 110.626  1.00  0.00     0.001 A 
ENDBRANCH   2  22
BRANCH   7  31
HETATM   31  C6  UNL     1      48.833  -0.335 101.416  1.00  0.00     0.084 C 
HETATM   32  C7  UNL     1      47.952  -0.611 100.198  1.00  0.00     0.032 C 
HETATM   33  C8  UNL     1      50.319  -0.378 101.057  1.00  0.00     0.032 C 
ENDBRANCH   7  31
TORSDOF 7
ENDMDL
