MODEL 1
REMARK VINA RESULT:      -9.2      0.000      0.000
REMARK  5 active torsions:
REMARK  status: ('A' for Active; 'I' for Inactive)
REMARK    1  A    between atoms: C7_7  and  C10_12 
REMARK    2  A    between atoms: C8_8  and  C16_18 
REMARK    3  A    between atoms: C16_18  and  C17_20 
REMARK    4  A    between atoms: C18_21  and  C19_22 
REMARK    5  A    between atoms: C22_25  and  O3_28 
ROOT
HETATM    1  C1  UNL     1      49.989   1.715 110.310  1.00  0.00     0.030 A 
HETATM    2  C2  UNL     1      50.559   2.895 109.837  1.00  0.00     0.002 A 
HETATM    3  C3  UNL     1      50.611   3.139 108.467  1.00  0.00     0.001 A 
HETATM    4  C4  UNL     1      50.091   2.205 107.565  1.00  0.00     0.014 A 
HETATM    5  C5  UNL     1      49.509   1.014 108.024  1.00  0.00     0.003 A 
HETATM    6  C6  UNL     1      49.471   0.786 109.405  1.00  0.00     0.046 A 
HETATM    7  C7  UNL     1      48.947  -0.002 107.091  1.00  0.00     0.006 A 
HETATM    8  C8  UNL     1      48.422  -1.135 107.620  1.00  0.00     0.094 A 
HETATM    9  C9  UNL     1      48.375  -1.363 109.090  1.00  0.00     0.261 A 
HETATM   10  N1  UNL     1      48.905  -0.392 109.892  1.00  0.00    -0.322 N 
HETATM   11  O1  UNL     1      47.860  -2.364 109.580  1.00  0.00    -0.267 OA
HETATM   12  H5  UNL     1      48.867  -0.573 110.886  1.00  0.00     0.169 HD
ENDROOT
BRANCH   8  13
HETATM   13  C16 UNL     1      47.880  -2.203 106.743  1.00  0.00     0.188 C 
HETATM   14  O2  UNL     1      46.690  -2.239 106.439  1.00  0.00    -0.287 OA
BRANCH  13  15
HETATM   15  C17 UNL     1      48.806  -3.259 106.248  1.00  0.00     0.057 C 
HETATM   16  C18 UNL     1      48.644  -4.581 106.419  1.00  0.00     0.015 C 
BRANCH  16  17
HETATM   17  C19 UNL     1      49.585  -5.577 105.893  1.00  0.00    -0.036 A 
HETATM   18  C20 UNL     1      50.690  -6.023 106.627  1.00  0.00     0.014 A 
HETATM   19  C21 UNL     1      51.588  -6.948 106.083  1.00  0.00     0.037 A 
HETATM   20  C22 UNL     1      51.398  -7.433 104.790  1.00  0.00     0.068 A 
HETATM   21  C23 UNL     1      50.306  -6.980 104.049  1.00  0.00     0.037 A 
HETATM   22  C24 UNL     1      49.408  -6.055 104.590  1.00  0.00     0.014 A 
BRANCH  20  23
HETATM   23  O3  UNL     1      52.195  -8.335 104.141  1.00  0.00    -0.356 OA
HETATM   24  C25 UNL     1      51.890  -8.595 102.777  1.00  0.00     0.210 C 
ENDBRANCH  20  23
ENDBRANCH  16  17
ENDBRANCH  13  15
ENDBRANCH   8  13
BRANCH   7  25
HETATM   25  C10 UNL     1      48.911   0.188 105.620  1.00  0.00    -0.024 A 
HETATM   26  C11 UNL     1      50.063  -0.047 104.856  1.00  0.00     0.012 A 
HETATM   27  C12 UNL     1      50.035   0.125 103.471  1.00  0.00     0.001 A 
HETATM   28  C13 UNL     1      48.859   0.532 102.842  1.00  0.00     0.000 A 
HETATM   29  C14 UNL     1      47.709   0.767 103.596  1.00  0.00     0.001 A 
HETATM   30  C15 UNL     1      47.734   0.594 104.981  1.00  0.00     0.012 A 
ENDBRANCH   7  25
TORSDOF 5
ENDMDL
