MODEL 1
REMARK VINA RESULT:      -7.7      0.000      0.000
REMARK  4 active torsions:
REMARK  status: ('A' for Active; 'I' for Inactive)
REMARK    1  A    between atoms: C1_1  and  C11_14 
REMARK    2  A    between atoms: C6_6  and  O2_28 
REMARK    3  A    between atoms: N3_13  and  C14_19 
REMARK    4  A    between atoms: C14_19  and  C15_20 
ROOT
HETATM    1  C1  UNL     1      48.949   2.412 102.756  1.00  0.00     0.014 A 
HETATM    2  C2  UNL     1      47.610   2.332 102.348  1.00  0.00     0.048 A 
HETATM    3  C3  UNL     1      46.855   1.181 102.497  1.00  0.00     0.070 A 
HETATM    4  C4  UNL     1      47.444   0.038 103.100  1.00  0.00     0.025 A 
HETATM    5  C5  UNL     1      48.816   0.112 103.467  1.00  0.00     0.053 A 
HETATM    6  C6  UNL     1      49.563   1.287 103.315  1.00  0.00     0.080 A 
HETATM    7  N1  UNL     1      45.590   1.226 102.030  1.00  0.00    -0.258 NA
HETATM    8  C7  UNL     1      44.822   0.123 102.112  1.00  0.00     0.149 A 
HETATM    9  C8  UNL     1      45.294  -1.014 102.698  1.00  0.00     0.082 A 
HETATM   10  C9  UNL     1      46.583  -1.070 103.232  1.00  0.00     0.080 A 
HETATM   11  N2  UNL     1      44.667  -2.238 102.862  1.00  0.00    -0.305 N 
HETATM   12  C10 UNL     1      45.536  -3.107 103.519  1.00  0.00     0.328 A 
HETATM   13  N3  UNL     1      46.703  -2.363 103.817  1.00  0.00    -0.286 N 
HETATM   14  O3  UNL     1      45.284  -4.270 103.775  1.00  0.00    -0.246 OA
HETATM   15  H4  UNL     1      43.750  -2.510 102.544  1.00  0.00     0.171 HD
ENDROOT
BRANCH  13  16
HETATM   16  C14 UNL     1      47.836  -2.934 104.532  1.00  0.00     0.142 C 
HETATM   17  C23 UNL     1      48.164  -4.319 103.969  1.00  0.00     0.039 C 
BRANCH  16  18
HETATM   18  C15 UNL     1      47.689  -2.919 106.059  1.00  0.00     0.057 A 
HETATM   19  C16 UNL     1      48.000  -1.768 106.788  1.00  0.00     0.029 A 
HETATM   20  C17 UNL     1      47.909  -1.795 108.177  1.00  0.00     0.003 A 
HETATM   21  C18 UNL     1      47.527  -2.969 108.811  1.00  0.00     0.019 A 
HETATM   22  C19 UNL     1      47.261  -4.075 108.026  1.00  0.00     0.117 A 
HETATM   23  N5  UNL     1      47.351  -4.082 106.678  1.00  0.00    -0.263 NA
ENDBRANCH  16  18
ENDBRANCH  13  16
BRANCH   6  24
HETATM   24  O2  UNL     1      50.882   1.412 103.668  1.00  0.00    -0.355 OA
HETATM   25  C22 UNL     1      51.846   0.657 102.946  1.00  0.00     0.210 C 
ENDBRANCH   6  24
BRANCH   1  26
HETATM   26  C11 UNL     1      49.667   3.659 102.559  1.00  0.00     0.035 A 
HETATM   27  C12 UNL     1      50.138   4.111 101.345  1.00  0.00     0.088 A 
HETATM   28  O1  UNL     1      50.764   5.305 101.525  1.00  0.00    -0.217 OA
HETATM   29  C20 UNL     1      50.105   3.601  99.961  1.00  0.00     0.080 C 
HETATM   30  N4  UNL     1      50.706   5.665 102.857  1.00  0.00    -0.133 NA
HETATM   31  C13 UNL     1      50.045   4.676 103.474  1.00  0.00     0.072 A 
HETATM   32  C21 UNL     1      49.806   4.749 104.935  1.00  0.00     0.074 C 
ENDBRANCH   1  26
TORSDOF 4
ENDMDL
