MODEL 1
REMARK VINA RESULT:      -7.0      0.000      0.000
REMARK  18 active torsions:
REMARK  status: ('A' for Active; 'I' for Inactive)
REMARK    1  A    between atoms: C1_1  and  C6_6 
REMARK    2  A    between atoms: C2_2  and  C3_3 
REMARK    3  A    between atoms: C4_4  and  C8_8 
REMARK    4  A    between atoms: C5_5  and  C7_7 
REMARK    5  A    between atoms: C7_7  and  C16_16 
REMARK    6  A    between atoms: C7_7  and  O1_21 
REMARK    7  A    between atoms: C9_9  and  C10_10 
REMARK    8  A    between atoms: C10_10  and  C11_11 
REMARK    9  A    between atoms: C10_10  and  O3_23 
REMARK   10  A    between atoms: C11_11  and  C12_12 
REMARK   11  A    between atoms: C11_11  and  O2_22 
REMARK   12  A    between atoms: C12_12  and  C13_13 
REMARK   13  A    between atoms: C14_14  and  C15_15 
REMARK   14  A    between atoms: C16_16  and  C17_17 
REMARK   15  A    between atoms: C18_18  and  C19_19 
REMARK   16  A    between atoms: C19_19  and  C20_20 
REMARK   17  A    between atoms: C20_20  and  C21_24 
REMARK   18  A    between atoms: C21_24  and  O5_27 
ROOT
HETATM    1  C1  UNL     1      51.375   3.678 108.549  1.00  0.00    -0.000 C 
HETATM    2  C2  UNL     1      51.220   4.017 107.260  1.00  0.00     0.000 C 
ENDROOT
BRANCH   2   3
HETATM    3  C3  UNL     1      50.202   3.551 106.341  1.00  0.00     0.000 C 
HETATM    4  C4  UNL     1      50.498   2.923 105.193  1.00  0.00    -0.000 C 
BRANCH   4   5
HETATM    5  C8  UNL     1      49.488   2.466 104.263  1.00  0.00    -0.001 C 
HETATM    6  C9  UNL     1      48.968   3.253 103.308  1.00  0.00     0.007 C 
BRANCH   6   7
HETATM    7  C10 UNL     1      47.920   2.794 102.322  1.00  0.00     0.170 C 
BRANCH   7   8
HETATM    8  C11 UNL     1      48.390   2.947 100.851  1.00  0.00     0.154 C 
BRANCH   8   9
HETATM    9  C12 UNL     1      48.971   1.644 100.259  1.00  0.00     0.061 C 
BRANCH   9  10
HETATM   10  C13 UNL     1      50.456   1.692 100.019  1.00  0.00    -0.028 C 
HETATM   11  C14 UNL     1      51.426   1.089 100.726  1.00  0.00    -0.031 C 
BRANCH  11  12
HETATM   12  C15 UNL     1      51.273   0.195 101.924  1.00  0.00     0.022 C 
HETATM   13  C22 UNL     1      52.333   0.489 102.976  1.00  0.00     0.009 C 
ENDBRANCH  11  12
ENDBRANCH   9  10
ENDBRANCH   8   9
BRANCH   8  14
HETATM   14  O2  UNL     1      49.350   4.004 100.725  1.00  0.00    -0.392 OA
HETATM   15  H30 UNL     1      48.895   4.775 100.346  1.00  0.00     0.210 HD
ENDBRANCH   8  14
ENDBRANCH   7   8
BRANCH   7  16
HETATM   16  O3  UNL     1      46.742   3.577 102.542  1.00  0.00    -0.389 OA
HETATM   17  H31 UNL     1      46.784   4.350 101.965  1.00  0.00     0.210 HD
ENDBRANCH   7  16
ENDBRANCH   6   7
ENDBRANCH   4   5
ENDBRANCH   2   3
BRANCH   1  18
HETATM   18  C6  UNL     1      50.581   2.739 109.314  1.00  0.00    -0.002 C 
HETATM   19  C5  UNL     1      50.771   1.411 109.252  1.00  0.00     0.005 C 
BRANCH  19  20
HETATM   20  C7  UNL     1      49.986   0.353 109.991  1.00  0.00     0.144 C 
BRANCH  20  21
HETATM   21  C16 UNL     1      49.072  -0.419 109.025  1.00  0.00     0.062 C 
BRANCH  21  22
HETATM   22  C17 UNL     1      49.042  -0.092 107.546  1.00  0.00    -0.028 C 
HETATM   23  C18 UNL     1      48.153  -0.288 106.558  1.00  0.00    -0.030 C 
BRANCH  23  24
HETATM   24  C19 UNL     1      46.780  -0.893 106.582  1.00  0.00     0.037 C 
BRANCH  24  25
HETATM   25  C20 UNL     1      46.840  -2.418 106.617  1.00  0.00     0.113 C 
BRANCH  25  26
HETATM   26  C21 UNL     1      46.817  -2.930 108.031  1.00  0.00     0.139 C 
HETATM   27  O4  UNL     1      47.408  -3.894 108.483  1.00  0.00    -0.650 OA
BRANCH  26  28
HETATM   28  O5  UNL     1      46.015  -2.190 108.819  1.00  0.00    -0.776 OA
HETATM   29  H32 UNL     1      46.601  -1.913 109.554  1.00  0.00     0.167 HD
ENDBRANCH  26  28
ENDBRANCH  25  26
ENDBRANCH  24  25
ENDBRANCH  23  24
ENDBRANCH  21  22
ENDBRANCH  20  21
BRANCH  20  30
HETATM   30  O1  UNL     1      49.196   0.962 111.009  1.00  0.00    -0.391 OA
HETATM   31  H29 UNL     1      49.151   0.322 111.740  1.00  0.00     0.210 HD
ENDBRANCH  20  30
ENDBRANCH  19  20
ENDBRANCH   1  18
TORSDOF 18
ENDMDL
