MODEL 1
REMARK VINA RESULT:      -6.7      0.000      0.000
REMARK  18 active torsions:
REMARK  status: ('A' for Active; 'I' for Inactive)
REMARK    1  A    between atoms: C1_1  and  C4_4 
REMARK    2  A    between atoms: C2_2  and  C3_3 
REMARK    3  A    between atoms: C5_5  and  C7_7 
REMARK    4  A    between atoms: C6_6  and  C8_8 
REMARK    5  A    between atoms: C8_8  and  C9_9 
REMARK    6  A    between atoms: C8_8  and  O1_13 
REMARK    7  A    between atoms: C9_9  and  C10_10 
REMARK    8  A    between atoms: C11_11  and  C12_12 
REMARK    9  A    between atoms: C13_14  and  C14_15 
REMARK   10  A    between atoms: C14_15  and  C15_16 
REMARK   11  A    between atoms: C14_15  and  O3_23 
REMARK   12  A    between atoms: C15_16  and  C16_17 
REMARK   13  A    between atoms: C15_16  and  O2_22 
REMARK   14  A    between atoms: C16_17  and  C17_18 
REMARK   15  A    between atoms: C18_19  and  C19_20 
REMARK   16  A    between atoms: C19_20  and  C20_21 
REMARK   17  A    between atoms: C20_21  and  C22_25 
REMARK   18  A    between atoms: C22_25  and  O5_27 
ROOT
HETATM    1  C7  UNL     1      50.934   3.591 108.521  1.00  0.00    -0.001 C 
HETATM    2  C13 UNL     1      51.250   2.287 108.536  1.00  0.00     0.007 C 
ENDROOT
BRANCH   2   3
HETATM    3  C14 UNL     1      51.191   1.416 109.765  1.00  0.00     0.170 C 
BRANCH   3   4
HETATM    4  C15 UNL     1      50.018   0.402 109.704  1.00  0.00     0.154 C 
BRANCH   4   5
HETATM    5  C16 UNL     1      49.185   0.517 108.411  1.00  0.00     0.061 C 
BRANCH   5   6
HETATM    6  C17 UNL     1      49.487  -0.536 107.379  1.00  0.00    -0.028 C 
HETATM    7  C18 UNL     1      48.610  -1.269 106.674  1.00  0.00    -0.030 C 
BRANCH   7   8
HETATM    8  C19 UNL     1      47.110  -1.173 106.704  1.00  0.00     0.037 C 
BRANCH   8   9
HETATM    9  C20 UNL     1      46.571  -0.166 105.697  1.00  0.00     0.113 C 
BRANCH   9  10
HETATM   10  C22 UNL     1      45.977  -0.832 104.490  1.00  0.00     0.139 C 
HETATM   11  O4  UNL     1      45.169  -0.343 103.717  1.00  0.00    -0.650 OA
BRANCH  10  12
HETATM   12  O5  UNL     1      46.392  -2.105 104.332  1.00  0.00    -0.776 OA
HETATM   13  H32 UNL     1      46.445  -2.214 103.358  1.00  0.00     0.167 HD
ENDBRANCH  10  12
ENDBRANCH   9  10
ENDBRANCH   8   9
ENDBRANCH   7   8
ENDBRANCH   5   6
ENDBRANCH   4   5
BRANCH   4  14
HETATM   14  O2  UNL     1      49.134   0.635 110.816  1.00  0.00    -0.392 OA
HETATM   15  H30 UNL     1      49.145  -0.169 111.363  1.00  0.00     0.210 HD
ENDBRANCH   4  14
ENDBRANCH   3   4
BRANCH   3  16
HETATM   16  O3  UNL     1      51.053   2.303 110.871  1.00  0.00    -0.389 OA
HETATM   17  H31 UNL     1      50.763   1.762 111.625  1.00  0.00     0.210 HD
ENDBRANCH   3  16
ENDBRANCH   2   3
BRANCH   1  18
HETATM   18  C5  UNL     1      50.997   4.398 107.324  1.00  0.00    -0.000 C 
HETATM   19  C3  UNL     1      50.320   4.097 106.205  1.00  0.00     0.000 C 
BRANCH  19  20
HETATM   20  C2  UNL     1      50.380   4.915 105.012  1.00  0.00     0.000 C 
HETATM   21  C1  UNL     1      49.768   4.692 103.837  1.00  0.00    -0.000 C 
BRANCH  21  22
HETATM   22  C4  UNL     1      48.917   3.574 103.487  1.00  0.00    -0.002 C 
HETATM   23  C6  UNL     1      48.962   2.979 102.282  1.00  0.00     0.005 C 
BRANCH  23  24
HETATM   24  C8  UNL     1      48.119   1.816 101.820  1.00  0.00     0.144 C 
BRANCH  24  25
HETATM   25  C9  UNL     1      48.795   0.447 102.037  1.00  0.00     0.062 C 
BRANCH  25  26
HETATM   26  C10 UNL     1      49.381   0.255 103.411  1.00  0.00    -0.028 C 
HETATM   27  C11 UNL     1      50.682   0.237 103.742  1.00  0.00    -0.031 C 
BRANCH  27  28
HETATM   28  C12 UNL     1      51.858   0.430 102.827  1.00  0.00     0.022 C 
HETATM   29  C21 UNL     1      52.424   1.837 102.948  1.00  0.00     0.009 C 
ENDBRANCH  27  28
ENDBRANCH  25  26
ENDBRANCH  24  25
BRANCH  24  30
HETATM   30  O1  UNL     1      46.863   1.811 102.502  1.00  0.00    -0.391 OA
HETATM   31  H18 UNL     1      46.292   2.450 102.044  1.00  0.00     0.210 HD
ENDBRANCH  24  30
ENDBRANCH  23  24
ENDBRANCH  21  22
ENDBRANCH  19  20
ENDBRANCH   1  18
TORSDOF 18
ENDMDL
