MODEL 1
REMARK VINA RESULT:      -8.3      0.000      0.000
REMARK  3 active torsions:
REMARK  status: ('A' for Active; 'I' for Inactive)
REMARK    1  A    between atoms: C12_12  and  N1_14 
REMARK    2  A    between atoms: C12_12  and  C13_15 
REMARK    3  A    between atoms: C13_15  and  C14_16 
ROOT
HETATM    1  C1  UNL     1      50.306   2.822 108.294  1.00  0.00    -0.025 A 
HETATM    2  C2  UNL     1      50.555   3.596 107.178  1.00  0.00     0.012 A 
HETATM    3  C3  UNL     1      50.286   3.124 105.922  1.00  0.00     0.002 A 
HETATM    4  C4  UNL     1      49.768   1.871 105.777  1.00  0.00     0.016 A 
HETATM    5  C5  UNL     1      49.497   1.040 106.884  1.00  0.00     0.023 A 
HETATM    6  C6  UNL     1      49.771   1.527 108.150  1.00  0.00    -0.012 A 
HETATM    7  C7  UNL     1      49.540   0.819 109.304  1.00  0.00     0.013 A 
HETATM    8  C8  UNL     1      49.812   1.324 110.564  1.00  0.00     0.001 A 
HETATM    9  C9  UNL     1      50.338   2.590 110.694  1.00  0.00     0.001 A 
HETATM   10  C10 UNL     1      50.567   3.300 109.550  1.00  0.00     0.012 A 
HETATM   11  C11 UNL     1      48.988  -0.294 106.674  1.00  0.00     0.193 A 
HETATM   12  C12 UNL     1      48.390  -0.721 105.367  1.00  0.00     0.297 A 
HETATM   13  O1  UNL     1      49.008  -1.167 107.543  1.00  0.00    -0.290 OA
HETATM   14 CL1  UNL     1      48.751   0.363 106.805  1.00  0.00    -0.145 Cl
HETATM   15  H24 UNL     1      48.142  -0.595 106.039  1.00  0.00     0.145 HD
ENDROOT
BRANCH  12  16
HETATM   16  N1  UNL     1      48.017  -2.119 105.373  1.00  0.00     0.100 NA
HETATM   17  C16 UNL     1      46.585  -2.224 105.584  1.00  0.00     0.273 C 
HETATM   18  C17 UNL     1      46.111  -3.453 104.856  1.00  0.00     0.032 C 
HETATM   19  C18 UNL     1      47.401  -4.059 104.346  1.00  0.00     0.032 C 
HETATM   20  C19 UNL     1      48.208  -2.771 104.101  1.00  0.00     0.273 C 
ENDBRANCH  12  16
BRANCH  12  21
HETATM   21  C13 UNL     1      47.101   0.029 105.100  1.00  0.00     0.044 C 
BRANCH  21  22
HETATM   22  C14 UNL     1      47.113   0.643 103.702  1.00  0.00    -0.002 C 
HETATM   23  C15 UNL     1      45.822   0.237 103.021  1.00  0.00     0.005 C 
ENDBRANCH  21  22
ENDBRANCH  12  21
TORSDOF 3
ENDMDL
