MODEL 1
REMARK VINA RESULT:      -8.9      0.000      0.000
REMARK  6 active torsions:
REMARK  status: ('A' for Active; 'I' for Inactive)
REMARK    1  A    between atoms: C6_6  and  O1_19 
REMARK    2  A    between atoms: C8_9  and  C9_10 
REMARK    3  A    between atoms: N2_12  and  C11_13 
REMARK    4  A    between atoms: N2_12  and  C14_16 
REMARK    5  A    between atoms: O1_19  and  C17_20 
REMARK    6  A    between atoms: C20_24  and  O3_25 
ROOT
HETATM    1  C9  UNL     1      49.950   2.566 104.344  1.00  0.00     0.071 A 
HETATM    2  C10 UNL     1      51.149   2.822 103.413  1.00  0.00     0.278 A 
HETATM    3  N2  UNL     1      50.926   2.246 102.065  1.00  0.00     0.096 N 
HETATM    4  C19 UNL     1      50.722   2.744 103.253  1.00  0.00     0.125 A 
HETATM    5  C20 UNL     1      49.817   3.780 103.836  1.00  0.00     0.135 A 
HETATM    6  O4  UNL     1      48.783   4.198 103.347  1.00  0.00    -0.650 OA
ENDROOT
BRANCH   3   7
HETATM    7  C11 UNL     1      51.032   3.251 100.979  1.00  0.00     0.215 C 
HETATM    8  C12 UNL     1      49.812   3.327 100.050  1.00  0.00     0.042 C 
HETATM    9  C13 UNL     1      52.318   3.065 100.160  1.00  0.00     0.042 C 
ENDBRANCH   3   7
BRANCH   3  10
HETATM   10  C14 UNL     1      51.731   1.013 101.842  1.00  0.00     0.215 C 
HETATM   11  C15 UNL     1      52.316   0.463 103.156  1.00  0.00     0.042 C 
HETATM   12  C16 UNL     1      50.934  -0.133 101.194  1.00  0.00     0.042 C 
ENDBRANCH   3  10
BRANCH   1  13
HETATM   13  C8  UNL     1      50.221   3.053 105.739  1.00  0.00    -0.026 A 
HETATM   14  C5  UNL     1      50.175   2.298 106.959  1.00  0.00     0.032 A 
HETATM   15  C4  UNL     1      50.449   3.185 108.003  1.00  0.00     0.045 A 
HETATM   16  C6  UNL     1      49.923   0.948 107.297  1.00  0.00     0.092 A 
HETATM   17  O3  UNL     1      49.326   2.012 105.978  1.00  0.00    -0.777 OA
HETATM   18  H30 UNL     1      49.686   1.285 106.528  1.00  0.00     0.167 HD
HETATM   19  C3  UNL     1      50.456   2.800 109.351  1.00  0.00     0.030 A 
HETATM   20  N1  UNL     1      50.690   4.416 107.441  1.00  0.00    -0.365 N 
HETATM   21  C2  UNL     1      50.165   1.466 109.652  1.00  0.00     0.005 A 
HETATM   22  C1  UNL     1      49.894   0.548 108.641  1.00  0.00     0.038 A 
HETATM   23  C7  UNL     1      50.551   4.351 106.083  1.00  0.00     0.096 A 
HETATM   24  H4  UNL     1      50.928   5.247 107.963  1.00  0.00     0.165 HD
BRANCH  16  25
HETATM   25  O1  UNL     1      49.622   0.004 106.299  1.00  0.00    -0.278 OA
BRANCH  25  26
HETATM   26  C17 UNL     1      48.380  -0.603 106.447  1.00  0.00     0.260 C 
HETATM   27  C18 UNL     1      48.580  -2.077 106.630  1.00  0.00     0.126 C 
HETATM   28  O2  UNL     1      47.284  -0.060 106.455  1.00  0.00    -0.265 OA
ENDBRANCH  25  26
ENDBRANCH  16  25
ENDBRANCH   1  13
TORSDOF 6
ENDMDL
