MODEL 1
REMARK VINA RESULT:      -6.7      0.000      0.000
REMARK  6 active torsions:
REMARK  status: ('A' for Active; 'I' for Inactive)
REMARK    1  A    between atoms: C3_3  and  C7_9 
REMARK    2  A    between atoms: C7_9  and  C8_10 
REMARK    3  A    between atoms: C7_9  and  C9_11 
REMARK    4  A    between atoms: C7_9  and  O1_12 
REMARK    5  A    between atoms: C8_10  and  N4_18 
REMARK    6  A    between atoms: C9_11  and  N1_14 
ROOT
HETATM    1  C7  UNL     1      49.355   0.696 106.587  1.00  0.00     0.124 C 
ENDROOT
BRANCH   1   2
HETATM    2  C3  UNL     1      49.695   1.342 107.937  1.00  0.00     0.018 A 
HETATM    3  C2  UNL     1      50.195   2.653 108.031  1.00  0.00     0.016 A 
HETATM    4  C1  UNL     1      50.517   3.209 109.272  1.00  0.00     0.043 A 
HETATM    5  C6  UNL     1      50.341   2.460 110.430  1.00  0.00     0.119 A 
HETATM    6  C5  UNL     1      49.847   1.167 110.374  1.00  0.00     0.085 A 
HETATM    7  F1  UNL     1      50.647   2.999 111.617  1.00  0.00    -0.206 F 
HETATM    8  C4  UNL     1      49.532   0.623 109.134  1.00  0.00     0.128 A 
HETATM    9  F2  UNL     1      49.043  -0.626 109.095  1.00  0.00    -0.205 F 
ENDBRANCH   1   2
BRANCH   1  10
HETATM   10  C8  UNL     1      49.805   1.662 105.451  1.00  0.00     0.197 C 
BRANCH  10  11
HETATM   11  N4  UNL     1      49.658   1.113 104.118  1.00  0.00    -0.259 N 
HETATM   12  C12 UNL     1      48.680   1.367 103.211  1.00  0.00     0.230 A 
HETATM   13  N5  UNL     1      48.899   0.659 102.129  1.00  0.00    -0.234 NA
HETATM   14  C13 UNL     1      50.049  -0.016 102.422  1.00  0.00     0.256 A 
HETATM   15  N6  UNL     1      50.546   0.218 103.642  1.00  0.00    -0.165 NA
ENDBRANCH  10  11
ENDBRANCH   1  10
BRANCH   1  16
HETATM   16  C9  UNL     1      47.853   0.337 106.464  1.00  0.00     0.197 C 
BRANCH  16  17
HETATM   17  N1  UNL     1      47.598  -1.074 106.240  1.00  0.00    -0.259 N 
HETATM   18  C10 UNL     1      47.059  -1.977 107.102  1.00  0.00     0.230 A 
HETATM   19  N3  UNL     1      47.038  -3.162 106.536  1.00  0.00    -0.234 NA
HETATM   20  C11 UNL     1      47.593  -2.926 105.311  1.00  0.00     0.256 A 
HETATM   21  N2  UNL     1      47.962  -1.662 105.085  1.00  0.00    -0.165 NA
ENDBRANCH  16  17
ENDBRANCH   1  16
BRANCH   1  22
HETATM   22  O1  UNL     1      50.119  -0.527 106.462  1.00  0.00    -0.381 OA
HETATM   23  H8  UNL     1      50.972  -0.299 106.025  1.00  0.00     0.211 HD
ENDBRANCH   1  22
TORSDOF 6
ENDMDL
