MODEL 1
REMARK VINA RESULT:      -8.6      0.000      0.000
REMARK  6 active torsions:
REMARK  status: ('A' for Active; 'I' for Inactive)
REMARK    1  A    between atoms: C1_1  and  C2_2 
REMARK    2  A    between atoms: C1_1  and  C3_4 
REMARK    3  A    between atoms: N1_6  and  C11_13 
REMARK    4  A    between atoms: C11_13  and  C12_14 
REMARK    5  A    between atoms: C12_14  and  C13_15 
REMARK    6  A    between atoms: C13_15  and  C14_16 
ROOT
HETATM    1  C2  UNL     1      49.231   0.256 107.641  1.00  0.00     0.038 A 
HETATM    2  C4  UNL     1      49.506   0.927 106.461  1.00  0.00     0.107 A 
HETATM    3  N1  UNL     1      50.086   2.130 106.764  1.00  0.00    -0.352 N 
HETATM    4  C5  UNL     1      50.208   2.273 108.128  1.00  0.00     0.045 A 
HETATM    5  C6  UNL     1      49.683   1.110 108.703  1.00  0.00     0.006 A 
HETATM    6  C7  UNL     1      50.740   3.314 108.908  1.00  0.00     0.030 A 
HETATM    7  C8  UNL     1      50.731   3.171 110.298  1.00  0.00     0.002 A 
HETATM    8  C9  UNL     1      50.213   2.028 110.895  1.00  0.00     0.001 A 
HETATM    9  C10 UNL     1      49.688   0.995 110.110  1.00  0.00     0.014 A 
ENDROOT
BRANCH   1  10
HETATM   10  C1  UNL     1      48.618  -1.065 107.772  1.00  0.00     0.167 C 
HETATM   11  O1  UNL     1      48.112  -1.475 108.812  1.00  0.00    -0.292 OA
BRANCH  10  12
HETATM   12  C3  UNL     1      48.690  -1.949 106.569  1.00  0.00     0.077 A 
HETATM   13  C16 UNL     1      47.644  -1.920 105.453  1.00  0.00    -0.029 A 
HETATM   14  C17 UNL     1      47.760  -3.147 106.370  1.00  0.00    -0.029 A 
HETATM   15  C18 UNL     1      48.141  -2.014 104.027  1.00  0.00     0.016 C 
HETATM   16  C21 UNL     1      46.428  -1.024 105.570  1.00  0.00     0.016 C 
HETATM   17  C19 UNL     1      46.653  -3.443 107.360  1.00  0.00     0.016 C 
HETATM   18  C20 UNL     1      48.386  -4.422 105.839  1.00  0.00     0.016 C 
ENDBRANCH  10  12
ENDBRANCH   1  10
BRANCH   3  19
HETATM   19  C11 UNL     1      50.497   3.112 105.768  1.00  0.00     0.165 C 
BRANCH  19  20
HETATM   20  C12 UNL     1      50.361   2.569 104.350  1.00  0.00     0.188 C 
HETATM   21  F1  UNL     1      49.359   3.254 103.722  1.00  0.00    -0.248 F 
BRANCH  20  22
HETATM   22  C13 UNL     1      51.645   2.783 103.548  1.00  0.00     0.038 C 
BRANCH  22  23
HETATM   23  C14 UNL     1      52.112   1.487 102.884  1.00  0.00    -0.002 C 
HETATM   24  C15 UNL     1      51.152   0.342 103.162  1.00  0.00     0.005 C 
ENDBRANCH  22  23
ENDBRANCH  20  22
ENDBRANCH  19  20
ENDBRANCH   3  19
TORSDOF 6
ENDMDL
