MODEL 1
REMARK VINA RESULT:      -9.2      0.000      0.000
REMARK  8 active torsions:
REMARK  status: ('A' for Active; 'I' for Inactive)
REMARK    1  A    between atoms: C1_1  and  C14_18 
REMARK    2  A    between atoms: N1_7  and  C10_14 
REMARK    3  A    between atoms: C7_8  and  N3_10 
REMARK       I    between atoms: N3_10  and  C8_11 
REMARK    4  A    between atoms: C8_11  and  C9_12 
REMARK    5  A    between atoms: C10_14  and  C11_15 
REMARK    6  A    between atoms: C11_15  and  C12_16 
REMARK    7  A    between atoms: C12_16  and  C13_17 
REMARK    8  A    between atoms: C14_18  and  O2_19 
ROOT
HETATM    1  C1  UNL     1      51.778   2.283 100.089  1.00  0.00     0.040 A 
HETATM    2  C2  UNL     1      50.426   2.139  99.744  1.00  0.00     0.021 A 
HETATM    3  C3  UNL     1      49.444   1.933 100.720  1.00  0.00     0.034 A 
HETATM    4  C4  UNL     1      49.871   1.883 102.053  1.00  0.00     0.081 A 
HETATM    5  C5  UNL     1      51.203   2.021 102.416  1.00  0.00     0.104 A 
HETATM    6  C6  UNL     1      52.181   2.224 101.431  1.00  0.00     0.053 A 
HETATM    7  N1  UNL     1      49.204   1.685 103.256  1.00  0.00    -0.179 N 
HETATM    8  C7  UNL     1      50.137   1.771 104.270  1.00  0.00     0.710 A 
HETATM    9  N2  UNL     1      51.348   1.928 103.770  1.00  0.00    -0.062 NA
ENDROOT
BRANCH   8  10
HETATM   10  N3  UNL     1      50.014   1.711 105.636  1.00  0.00    -0.153 N 
HETATM   11  C8  UNL     1      50.175   2.698 106.574  1.00  0.00     0.269 C 
HETATM   12  O1  UNL     1      50.407   3.882 106.384  1.00  0.00    -0.267 OA
HETATM   13  H4  UNL     1      49.856   0.761 105.943  1.00  0.00     0.187 HD
BRANCH  11  14
HETATM   14  C9  UNL     1      50.039   2.236 107.986  1.00  0.00     0.032 A 
HETATM   15  C20 UNL     1      49.647   0.911 108.217  1.00  0.00     0.017 A 
HETATM   16  C21 UNL     1      49.507   0.440 109.524  1.00  0.00     0.001 A 
HETATM   17  C22 UNL     1      49.747   1.292 110.601  1.00  0.00     0.000 A 
HETATM   18  C23 UNL     1      50.119   2.618 110.377  1.00  0.00     0.001 A 
HETATM   19  C24 UNL     1      50.261   3.095 109.071  1.00  0.00     0.017 A 
ENDBRANCH  11  14
ENDBRANCH   8  10
BRANCH   7  20
HETATM   20  C10 UNL     1      47.801   1.319 103.308  1.00  0.00     0.148 C 
BRANCH  20  21
HETATM   21  C11 UNL     1      47.585  -0.068 103.916  1.00  0.00     0.025 C 
BRANCH  21  22
HETATM   22  C12 UNL     1      46.827  -0.014 105.244  1.00  0.00     0.040 C 
BRANCH  22  23
HETATM   23  C13 UNL     1      47.181  -1.145 106.177  1.00  0.00    -0.058 A 
HETATM   24  C15 UNL     1      48.262  -1.993 105.890  1.00  0.00     0.007 A 
HETATM   25  C16 UNL     1      48.603  -3.025 106.763  1.00  0.00     0.001 A 
HETATM   26  C17 UNL     1      47.867  -3.223 107.930  1.00  0.00     0.000 A 
HETATM   27  C18 UNL     1      46.790  -2.389 108.224  1.00  0.00     0.001 A 
HETATM   28  C19 UNL     1      46.447  -1.356 107.351  1.00  0.00     0.007 A 
ENDBRANCH  22  23
ENDBRANCH  21  22
ENDBRANCH  20  21
ENDBRANCH   7  20
BRANCH   1  29
HETATM   29  C14 UNL     1      52.756   2.497  98.995  1.00  0.00     0.176 C 
HETATM   30  O3  UNL     1      52.714   1.986  97.891  1.00  0.00    -0.646 OA
BRANCH  29  31
HETATM   31  O2  UNL     1      53.745   3.343  99.333  1.00  0.00    -0.773 OA
HETATM   32  H11 UNL     1      54.455   2.753  99.665  1.00  0.00     0.167 HD
ENDBRANCH  29  31
ENDBRANCH   1  29
TORSDOF 8
ENDMDL
