MODEL 1
REMARK VINA RESULT:      -7.9      0.000      0.000
REMARK  6 active torsions:
REMARK  status: ('A' for Active; 'I' for Inactive)
REMARK    1  A    between atoms: C1_1  and  C6_7 
REMARK       I    between atoms: N1_4  and  C7_8 
REMARK    2  A    between atoms: C7_8  and  C8_9 
REMARK    3  A    between atoms: C8_9  and  C11_15 
REMARK    4  A    between atoms: C11_15  and  C12_16 
REMARK    5  A    between atoms: C12_16  and  C13_17 
REMARK    6  A    between atoms: C13_17  and  C14_18 
ROOT
HETATM    1  C1  UNL     1      50.594   0.120 102.476  1.00  0.00     0.040 C 
HETATM    2  C2  UNL     1      50.349   0.555 103.935  1.00  0.00     0.030 C 
HETATM    3  C3  UNL     1      49.021   1.286 104.125  1.00  0.00     0.126 C 
HETATM    4  N1  UNL     1      47.937   0.490 103.558  1.00  0.00    -0.352 N 
HETATM    5  C4  UNL     1      48.059   0.261 102.122  1.00  0.00     0.126 C 
HETATM    6  C5  UNL     1      49.346  -0.513 101.830  1.00  0.00     0.030 C 
HETATM    7  C7  UNL     1      47.056  -0.303 104.289  1.00  0.00     0.219 C 
HETATM    8  O1  UNL     1      46.297  -1.105 103.743  1.00  0.00    -0.273 OA
ENDROOT
BRANCH   7   9
HETATM    9  C8  UNL     1      47.064  -0.119 105.801  1.00  0.00     0.103 C 
BRANCH   9  10
HETATM   10  C11 UNL     1      47.786  -1.236 106.560  1.00  0.00     0.009 C 
BRANCH  10  11
HETATM   11  C12 UNL     1      49.089  -0.813 107.245  1.00  0.00     0.001 C 
BRANCH  11  12
HETATM   12  C13 UNL     1      48.997  -0.331 108.699  1.00  0.00     0.004 C 
BRANCH  12  13
HETATM   13  C14 UNL     1      49.943   0.835 109.060  1.00  0.00    -0.014 C 
HETATM   14  C15 UNL     1      49.970   1.866 107.910  1.00  0.00     0.004 C 
HETATM   15  C16 UNL     1      50.443   3.261 108.329  1.00  0.00     0.000 C 
HETATM   16  C17 UNL     1      51.317   3.223 109.572  1.00  0.00     0.000 C 
HETATM   17  C18 UNL     1      50.576   2.612 110.761  1.00  0.00     0.000 C 
HETATM   18  C19 UNL     1      49.551   1.546 110.363  1.00  0.00     0.004 C 
ENDBRANCH  12  13
ENDBRANCH  11  12
ENDBRANCH  10  11
ENDBRANCH   9  10
ENDBRANCH   7   9
BRANCH   1  19
HETATM   19  C6  UNL     1      51.171   1.228 101.641  1.00  0.00     0.032 A 
HETATM   20  N2  UNL     1      51.419   1.076 100.295  1.00  0.00    -0.353 N 
HETATM   21  C9  UNL     1      51.940   2.247  99.828  1.00  0.00     0.207 A 
HETATM   22  H12 UNL     1      51.247   0.247  99.742  1.00  0.00     0.166 HD
HETATM   23  N3  UNL     1      52.042   3.140 100.783  1.00  0.00    -0.254 NA
HETATM   24  C10 UNL     1      51.565   2.523 101.909  1.00  0.00     0.143 A 
ENDBRANCH   1  19
TORSDOF 6
ENDMDL
