MODEL 1
REMARK VINA RESULT:      -7.4      0.000      0.000
REMARK  13 active torsions:
REMARK  status: ('A' for Active; 'I' for Inactive)
REMARK    1  A    between atoms: C3_3  and  C6_8 
REMARK    2  A    between atoms: C4_4  and  O2_7 
REMARK    3  A    between atoms: C6_8  and  C7_9 
REMARK    4  A    between atoms: C8_10  and  C9_11 
REMARK    5  A    between atoms: C9_11  and  C10_12 
REMARK    6  A    between atoms: C10_12  and  C11_13 
REMARK    7  A    between atoms: C11_13  and  C12_14 
REMARK    8  A    between atoms: C12_14  and  O3_23 
REMARK    9  A    between atoms: C13_15  and  C14_16 
REMARK   10  A    between atoms: C15_17  and  C16_18 
REMARK   11  A    between atoms: C16_18  and  C17_19 
REMARK   12  A    between atoms: C17_19  and  C18_20 
REMARK   13  A    between atoms: C18_20  and  C19_21 
ROOT
HETATM    1  C1  UNL     1      50.527   5.453 104.863  1.00  0.00     0.158 C 
HETATM    2  C2  UNL     1      50.611   4.017 105.307  1.00  0.00    -0.005 C 
HETATM    3  C3  UNL     1      50.748   3.204 104.036  1.00  0.00     0.055 C 
HETATM    4  C4  UNL     1      50.032   4.112 103.009  1.00  0.00     0.134 C 
HETATM    5  C5  UNL     1      50.388   5.548 103.373  1.00  0.00     0.116 C 
HETATM    6  O1  UNL     1      50.582   6.415 105.612  1.00  0.00    -0.293 OA
HETATM    7  C13 UNL     1      50.510   3.766 106.622  1.00  0.00     0.011 C 
ENDROOT
BRANCH   3   8
HETATM    8  C6  UNL     1      50.205   1.765 103.986  1.00  0.00     0.038 C 
BRANCH   8   9
HETATM    9  C7  UNL     1      51.247   0.789 103.494  1.00  0.00    -0.030 C 
HETATM   10  C8  UNL     1      51.326   0.242 102.269  1.00  0.00    -0.031 C 
BRANCH  10  11
HETATM   11  C9  UNL     1      50.421   0.502 101.099  1.00  0.00     0.027 C 
BRANCH  11  12
HETATM   12  C10 UNL     1      50.750   1.781 100.323  1.00  0.00     0.014 C 
BRANCH  12  13
HETATM   13  C11 UNL     1      52.182   2.279 100.509  1.00  0.00     0.110 C 
BRANCH  13  14
HETATM   14  C12 UNL     1      52.869   2.623  99.217  1.00  0.00     0.139 C 
HETATM   15  O4  UNL     1      52.715   2.057  98.148  1.00  0.00    -0.650 OA
BRANCH  14  16
HETATM   16  O3  UNL     1      53.747   3.637  99.340  1.00  0.00    -0.776 OA
HETATM   17  H30 UNL     1      53.367   4.195 100.049  1.00  0.00     0.167 HD
ENDBRANCH  14  16
ENDBRANCH  13  14
ENDBRANCH  12  13
ENDBRANCH  11  12
ENDBRANCH  10  11
ENDBRANCH   8   9
ENDBRANCH   3   8
BRANCH   4  18
HETATM   18  O2  UNL     1      48.613   3.935 103.014  1.00  0.00    -0.394 OA
HETATM   19  H5  UNL     1      48.176   4.806 102.981  1.00  0.00     0.210 HD
ENDBRANCH   4  18
BRANCH   7  20
HETATM   20  C14 UNL     1      50.541   2.488 107.293  1.00  0.00    -0.003 C 
HETATM   21  C15 UNL     1      49.426   1.819 107.623  1.00  0.00    -0.027 C 
BRANCH  21  22
HETATM   22  C16 UNL     1      49.429   0.491 108.332  1.00  0.00     0.027 C 
BRANCH  22  23
HETATM   23  C17 UNL     1      50.053   0.551 109.730  1.00  0.00     0.004 C 
BRANCH  23  24
HETATM   24  C18 UNL     1      49.338   1.477 110.723  1.00  0.00    -0.000 C 
BRANCH  24  25
HETATM   25  C19 UNL     1      50.150   2.698 111.147  1.00  0.00    -0.005 C 
HETATM   26  C20 UNL     1      51.502   2.734 110.451  1.00  0.00     0.005 C 
ENDBRANCH  24  25
ENDBRANCH  23  24
ENDBRANCH  22  23
ENDBRANCH  21  22
ENDBRANCH   7  20
TORSDOF 13
ENDMDL
