MODEL 1
REMARK VINA RESULT:      -8.7      0.000      0.000
REMARK  6 active torsions:
REMARK  status: ('A' for Active; 'I' for Inactive)
REMARK    1  A    between atoms: C1_1  and  C2_2 
REMARK    2  A    between atoms: C1_1  and  C3_4 
REMARK    3  A    between atoms: N1_6  and  C11_13 
REMARK    4  A    between atoms: C11_13  and  C12_14 
REMARK    5  A    between atoms: C12_14  and  C13_15 
REMARK    6  A    between atoms: C13_15  and  C14_16 
ROOT
HETATM    1  C2  UNL     1      49.233   0.218 107.576  1.00  0.00     0.038 A 
HETATM    2  C4  UNL     1      49.427   0.896 106.384  1.00  0.00     0.107 A 
HETATM    3  N1  UNL     1      50.063   2.084 106.648  1.00  0.00    -0.354 N 
HETATM    4  C5  UNL     1      50.206   2.250 108.009  1.00  0.00     0.045 A 
HETATM    5  C6  UNL     1      49.713   1.085 108.613  1.00  0.00     0.006 A 
HETATM    6  C7  UNL     1      50.723   3.313 108.769  1.00  0.00     0.030 A 
HETATM    7  C8  UNL     1      50.755   3.184 110.160  1.00  0.00     0.002 A 
HETATM    8  C9  UNL     1      50.286   2.033 110.782  1.00  0.00     0.001 A 
HETATM    9  C10 UNL     1      49.763   0.983 110.020  1.00  0.00     0.014 A 
ENDROOT
BRANCH   1  10
HETATM   10  C1  UNL     1      48.636  -1.107 107.741  1.00  0.00     0.167 C 
HETATM   11  O1  UNL     1      48.065  -1.471 108.762  1.00  0.00    -0.292 OA
BRANCH  10  12
HETATM   12  C3  UNL     1      48.700  -2.011 106.552  1.00  0.00     0.077 A 
HETATM   13  C16 UNL     1      47.634  -2.001 105.454  1.00  0.00    -0.029 A 
HETATM   14  C17 UNL     1      47.782  -3.224 106.373  1.00  0.00    -0.029 A 
HETATM   15  C18 UNL     1      48.122  -2.079 104.022  1.00  0.00     0.016 C 
HETATM   16  C21 UNL     1      46.406  -1.124 105.577  1.00  0.00     0.016 C 
HETATM   17  C19 UNL     1      48.398  -4.490 105.820  1.00  0.00     0.016 C 
HETATM   18  C20 UNL     1      46.694  -3.517 107.388  1.00  0.00     0.016 C 
ENDBRANCH  10  12
ENDBRANCH   1  10
BRANCH   3  19
HETATM   19  C11 UNL     1      50.468   3.026 105.614  1.00  0.00     0.148 C 
BRANCH  19  20
HETATM   20  C12 UNL     1      50.239   2.510 104.187  1.00  0.00     0.100 C 
HETATM   21 CL1  UNL     1      49.301   3.728 103.259  1.00  0.00    -0.123 Cl
BRANCH  20  22
HETATM   22  C13 UNL     1      51.501   2.078 103.419  1.00  0.00     0.021 C 
BRANCH  22  23
HETATM   23  C14 UNL     1      51.690   0.594 103.081  1.00  0.00    -0.003 C 
HETATM   24  C15 UNL     1      51.110   0.146 101.753  1.00  0.00     0.005 C 
ENDBRANCH  22  23
ENDBRANCH  20  22
ENDBRANCH  19  20
ENDBRANCH   3  19
TORSDOF 6
ENDMDL
