MODEL 1
REMARK VINA RESULT:      -8.5      0.000      0.000
REMARK  7 active torsions:
REMARK  status: ('A' for Active; 'I' for Inactive)
REMARK    1  A    between atoms: C5_5  and  C7_7 
REMARK    2  A    between atoms: C7_7  and  O1_8 
REMARK    3  A    between atoms: O1_8  and  C8_9 
REMARK    4  A    between atoms: C9_11  and  N5_18 
REMARK    5  A    between atoms: N5_18  and  C13_19 
REMARK    6  A    between atoms: C16_22  and  S1_25 
REMARK    7  A    between atoms: S1_25  and  N6_26 
ROOT
HETATM    1  C8  UNL     1      50.042   2.712 104.304  1.00  0.00     0.216 A 
HETATM    2  N1  UNL     1      49.135   1.710 104.469  1.00  0.00    -0.035 NA
HETATM    3  C9  UNL     1      48.298   1.392 103.455  1.00  0.00     0.731 A 
HETATM    4  N2  UNL     1      48.276   1.990 102.252  1.00  0.00    -0.042 NA
HETATM    5  C10 UNL     1      49.182   2.967 102.138  1.00  0.00     0.181 A 
HETATM    6  C11 UNL     1      50.091   3.392 103.089  1.00  0.00     0.158 A 
HETATM    7  N3  UNL     1      49.403   3.759 101.050  1.00  0.00    -0.333 N 
HETATM    8  C12 UNL     1      50.418   4.620 101.367  1.00  0.00     0.209 A 
HETATM    9  N4  UNL     1      50.858   4.426 102.592  1.00  0.00    -0.236 NA
HETATM   10  H14 UNL     1      48.899   3.707 100.178  1.00  0.00     0.168 HD
ENDROOT
BRANCH   3  11
HETATM   11  N5  UNL     1      47.426   0.348 103.761  1.00  0.00    -0.188 N 
HETATM   12  H16 UNL     1      46.715   0.306 103.043  1.00  0.00     0.184 HD
BRANCH  11  13
HETATM   13  C13 UNL     1      47.383  -0.634 104.755  1.00  0.00     0.049 A 
HETATM   14  C14 UNL     1      47.991  -1.876 104.493  1.00  0.00     0.031 A 
HETATM   15  C15 UNL     1      47.973  -2.913 105.431  1.00  0.00     0.027 A 
HETATM   16  C16 UNL     1      47.327  -2.718 106.650  1.00  0.00     0.074 A 
HETATM   17  C17 UNL     1      46.722  -1.497 106.941  1.00  0.00     0.027 A 
HETATM   18  C18 UNL     1      46.747  -0.468 105.991  1.00  0.00     0.031 A 
BRANCH  16  19
HETATM   19  S1  UNL     1      47.290  -4.016 107.855  1.00  0.00     0.239 S 
HETATM   20  O2  UNL     1      48.485  -4.812 107.709  1.00  0.00    -0.206 OA
HETATM   21  O3  UNL     1      45.965  -4.593 107.871  1.00  0.00    -0.206 OA
BRANCH  19  22
HETATM   22  N6  UNL     1      47.419  -3.144 109.291  1.00  0.00    -0.225 NA
HETATM   23  H21 UNL     1      48.405  -3.084 109.553  1.00  0.00     0.136 HD
HETATM   24  H22 UNL     1      46.848  -3.524 110.045  1.00  0.00     0.136 HD
ENDBRANCH  19  22
ENDBRANCH  16  19
ENDBRANCH  11  13
ENDBRANCH   3  11
BRANCH   1  25
HETATM   25  O1  UNL     1      50.903   3.050 105.328  1.00  0.00    -0.332 OA
BRANCH  25  26
HETATM   26  C7  UNL     1      50.241   3.541 106.494  1.00  0.00     0.182 C 
BRANCH  26  27
HETATM   27  C5  UNL     1      50.534   2.591 107.667  1.00  0.00     0.010 C 
HETATM   28  C4  UNL     1      49.476   1.479 107.767  1.00  0.00     0.007 C 
HETATM   29  C3  UNL     1      49.724   0.567 108.967  1.00  0.00     0.000 C 
HETATM   30  C2  UNL     1      49.819   1.359 110.268  1.00  0.00     0.000 C 
HETATM   31  C1  UNL     1      50.873   2.458 110.176  1.00  0.00     0.000 C 
HETATM   32  C6  UNL     1      50.625   3.377 108.982  1.00  0.00     0.007 C 
ENDBRANCH  26  27
ENDBRANCH  25  26
ENDBRANCH   1  25
TORSDOF 7
ENDMDL
