MODEL 1
REMARK VINA RESULT:      -9.1      0.000      0.000
REMARK  5 active torsions:
REMARK  status: ('A' for Active; 'I' for Inactive)
REMARK    1  A    between atoms: C1_1  and  N4_22 
REMARK    2  A    between atoms: N1_4  and  C6_7 
REMARK    3  A    between atoms: C6_7  and  C7_8 
REMARK    4  A    between atoms: C7_8  and  N2_9 
REMARK       I    between atoms: N2_9  and  C8_10 
REMARK    5  A    between atoms: C8_10  and  C9_11 
ROOT
HETATM    1  C1  UNL     1      49.176  -0.680 101.058  1.00  0.00     0.098 C 
HETATM    2  C2  UNL     1      48.176   0.395 100.616  1.00  0.00     0.056 C 
HETATM    3  C3  UNL     1      48.842   1.406  99.684  1.00  0.00     0.274 C 
HETATM    4  N1  UNL     1      50.055   2.026 100.240  1.00  0.00     0.090 N 
HETATM    5  C4  UNL     1      51.019   0.990 100.651  1.00  0.00     0.274 C 
HETATM    6  C5  UNL     1      50.450  -0.043 101.622  1.00  0.00     0.056 C 
ENDROOT
BRANCH   4   7
HETATM    7  C6  UNL     1      49.723   2.980 101.327  1.00  0.00     0.292 C 
BRANCH   7   8
HETATM    8  C7  UNL     1      50.962   3.521 102.064  1.00  0.00     0.153 C 
BRANCH   8   9
HETATM    9  N2  UNL     1      50.921   3.179 103.471  1.00  0.00    -0.354 N 
HETATM   10  C8  UNL     1      50.897   4.137 104.451  1.00  0.00     0.268 C 
HETATM   11  O1  UNL     1      51.040   5.332 104.212  1.00  0.00    -0.266 OA
HETATM   12  H14 UNL     1      50.603   2.241 103.681  1.00  0.00     0.162 HD
BRANCH  10  13
HETATM   13  C9  UNL     1      50.676   3.644 105.792  1.00  0.00     0.102 A 
HETATM   14  N3  UNL     1      50.274   2.345 106.015  1.00  0.00    -0.351 N 
HETATM   15  C10 UNL     1      50.127   2.092 107.357  1.00  0.00     0.043 A 
HETATM   16  H15 UNL     1      50.111   1.678 105.271  1.00  0.00     0.166 HD
HETATM   17  C11 UNL     1      50.439   3.273 108.027  1.00  0.00    -0.004 A 
HETATM   18  C13 UNL     1      49.745   0.919 108.022  1.00  0.00     0.033 A 
HETATM   19  C12 UNL     1      50.777   4.240 107.038  1.00  0.00     0.049 A 
HETATM   20  C16 UNL     1      50.367   3.297 109.432  1.00  0.00     0.056 A 
HETATM   21  C15 UNL     1      49.988   2.134 110.101  1.00  0.00     0.117 A 
HETATM   22  C14 UNL     1      49.681   0.964 109.417  1.00  0.00     0.044 A 
HETATM   23  F1  UNL     1      49.917   2.144 111.439  1.00  0.00    -0.206 F 
ENDBRANCH  10  13
ENDBRANCH   8   9
ENDBRANCH   7   8
ENDBRANCH   4   7
BRANCH   1  24
HETATM   24  N4  UNL     1      48.581  -1.616 101.997  1.00  0.00    -0.293 N 
HETATM   25  C17 UNL     1      48.365  -2.995 101.766  1.00  0.00     0.328 A 
HETATM   26  N5  UNL     1      47.773  -3.508 102.929  1.00  0.00    -0.306 N 
HETATM   27  O2  UNL     1      48.631  -3.643 100.767  1.00  0.00    -0.246 OA
HETATM   28  C18 UNL     1      47.623  -2.483 103.853  1.00  0.00     0.063 A 
HETATM   29  H20 UNL     1      47.510  -4.473 103.040  1.00  0.00     0.171 HD
HETATM   30  C19 UNL     1      48.119  -1.307 103.289  1.00  0.00     0.066 A 
HETATM   31  C20 UNL     1      47.091  -2.536 105.121  1.00  0.00     0.032 A 
HETATM   32  C23 UNL     1      48.098  -0.119 103.989  1.00  0.00     0.032 A 
HETATM   33  C22 UNL     1      47.562  -0.145 105.282  1.00  0.00     0.002 A 
HETATM   34  C21 UNL     1      47.062  -1.339 105.842  1.00  0.00     0.002 A 
ENDBRANCH   1  24
TORSDOF 5
ENDMDL
