MODEL 1
REMARK VINA RESULT:      -7.9      0.000      0.000
REMARK  7 active torsions:
REMARK  status: ('A' for Active; 'I' for Inactive)
REMARK    1  A    between atoms: C9_12  and  C10_13 
REMARK    2  A    between atoms: C12_16  and  C16_20 
REMARK       I    between atoms: C16_20  and  N3_21 
REMARK    3  A    between atoms: N3_21  and  C17_23 
REMARK    4  A    between atoms: C17_23  and  C18_24 
REMARK    5  A    between atoms: C18_24  and  N4_25 
REMARK    6  A    between atoms: N4_25  and  C19_26 
REMARK    7  A    between atoms: N4_25  and  C20_27 
ROOT
HETATM    1  C10 UNL     1      47.692  -1.490 106.005  1.00  0.00     0.040 A 
HETATM    2  N2  UNL     1      46.840  -1.185 104.975  1.00  0.00    -0.359 N 
HETATM    3  C11 UNL     1      46.408  -2.320 104.331  1.00  0.00     0.022 A 
HETATM    4  C12 UNL     1      46.960  -3.413 104.989  1.00  0.00     0.062 A 
HETATM    5  C13 UNL     1      47.788  -2.879 106.042  1.00  0.00    -0.018 A 
HETATM    6  C14 UNL     1      45.541  -2.206 103.129  1.00  0.00     0.069 C 
HETATM    7  C15 UNL     1      48.598  -3.703 106.989  1.00  0.00     0.052 C 
HETATM    8  H6  UNL     1      46.577  -0.244 104.695  1.00  0.00     0.166 HD
ENDROOT
BRANCH   1   9
HETATM    9  C9  UNL     1      48.310  -0.487 106.805  1.00  0.00     0.048 C 
HETATM   10  C8  UNL     1      49.010   0.598 106.437  1.00  0.00     0.047 A 
HETATM   11  C5  UNL     1      49.588   1.551 107.409  1.00  0.00     0.008 A 
HETATM   12  C7  UNL     1      49.380   1.125 105.069  1.00  0.00     0.257 A 
HETATM   13  C4  UNL     1      50.233   2.538 106.659  1.00  0.00     0.046 A 
HETATM   14  C6  UNL     1      49.592   1.613 108.792  1.00  0.00     0.038 A 
HETATM   15  C3  UNL     1      50.895   3.604 107.236  1.00  0.00     0.032 A 
HETATM   16  N1  UNL     1      50.106   2.281 105.300  1.00  0.00    -0.322 N 
HETATM   17  C2  UNL     1      50.901   3.673 108.632  1.00  0.00     0.026 A 
HETATM   18  C1  UNL     1      50.255   2.686 109.397  1.00  0.00     0.035 A 
HETATM   19 CL1  UNL     1      50.282   2.801 111.115  1.00  0.00    -0.084 Cl
HETATM   20  H4  UNL     1      50.486   2.844 104.554  1.00  0.00     0.169 HD
HETATM   21  O1  UNL     1      49.115   0.654 103.979  1.00  0.00    -0.267 OA
ENDBRANCH   1   9
BRANCH   4  22
HETATM   22  C16 UNL     1      46.780  -4.833 104.666  1.00  0.00     0.254 C 
HETATM   23  N3  UNL     1      47.912  -5.460 104.192  1.00  0.00    -0.355 N 
HETATM   24  H13 UNL     1      48.642  -4.846 103.858  1.00  0.00     0.162 HD
HETATM   25  O2  UNL     1      45.696  -5.401 104.759  1.00  0.00    -0.268 OA
BRANCH  23  26
HETATM   26  C17 UNL     1      47.840  -6.801 103.645  1.00  0.00     0.153 C 
BRANCH  26  27
HETATM   27  C18 UNL     1      49.113  -7.612 103.952  1.00  0.00     0.292 C 
BRANCH  27  28
HETATM   28  N4  UNL     1      50.346  -6.852 104.235  1.00  0.00     0.089 N 
BRANCH  28  29
HETATM   29  C19 UNL     1      51.254  -6.823 103.078  1.00  0.00     0.268 C 
HETATM   30  C22 UNL     1      52.708  -6.829 103.533  1.00  0.00     0.037 C 
ENDBRANCH  28  29
BRANCH  28  31
HETATM   31  C20 UNL     1      50.989  -7.329 105.471  1.00  0.00     0.268 C 
HETATM   32  C21 UNL     1      50.823  -6.383 106.655  1.00  0.00     0.037 C 
ENDBRANCH  28  31
ENDBRANCH  27  28
ENDBRANCH  26  27
ENDBRANCH  23  26
ENDBRANCH   4  22
TORSDOF 7
ENDMDL
