MODEL 1
REMARK VINA RESULT:      -6.5      0.000      0.000
REMARK  4 active torsions:
REMARK  status: ('A' for Active; 'I' for Inactive)
REMARK    1  A    between atoms: C5_5  and  C10_15 
REMARK    2  A    between atoms: C10_15  and  O6_16 
REMARK    3  A    between atoms: O6_16  and  S1_17 
REMARK    4  A    between atoms: S1_17  and  N1_18 
ROOT
HETATM    1  C1  UNL     1      50.460   2.980 105.882  1.00  0.00     0.206 C 
HETATM    2  C2  UNL     1      50.296   2.645 104.407  1.00  0.00     0.180 C 
HETATM    3  C3  UNL     1      49.493   1.387 104.166  1.00  0.00     0.191 C 
HETATM    4  C4  UNL     1      49.693   0.368 105.294  1.00  0.00     0.221 C 
HETATM    5  C5  UNL     1      49.377   0.981 106.658  1.00  0.00     0.219 C 
HETATM    6  O1  UNL     1      49.409   2.415 106.661  1.00  0.00    -0.348 OA
HETATM    7  O2  UNL     1      48.791  -0.740 105.151  1.00  0.00    -0.342 OA
HETATM    8  C6  UNL     1      47.717  -0.508 106.062  1.00  0.00     0.161 C 
HETATM    9  O3  UNL     1      48.021   0.587 106.927  1.00  0.00    -0.315 OA
HETATM   10  O4  UNL     1      51.564   2.369 103.805  1.00  0.00    -0.346 OA
HETATM   11  C7  UNL     1      51.266   1.496 102.708  1.00  0.00     0.158 C 
HETATM   12  O5  UNL     1      49.990   0.878 102.917  1.00  0.00    -0.345 OA
HETATM   13  C8  UNL     1      47.509  -1.772 106.892  1.00  0.00     0.078 C 
HETATM   14  C9  UNL     1      46.440  -0.185 105.292  1.00  0.00     0.078 C 
HETATM   15  C11 UNL     1      52.343   0.424 102.624  1.00  0.00     0.078 C 
HETATM   16  C12 UNL     1      51.208   2.308 101.416  1.00  0.00     0.078 C 
ENDROOT
BRANCH   5  17
HETATM   17  C10 UNL     1      50.259   0.432 107.797  1.00  0.00     0.263 C 
BRANCH  17  18
HETATM   18  O6  UNL     1      49.862   0.953 109.059  1.00  0.00    -0.258 OA
BRANCH  18  19
HETATM   19  S1  UNL     1      50.921   1.895 109.837  1.00  0.00     0.335 S 
HETATM   20  O7  UNL     1      52.243   1.655 109.310  1.00  0.00    -0.181 OA
HETATM   21  O8  UNL     1      50.629   1.860 111.249  1.00  0.00    -0.181 OA
BRANCH  19  22
HETATM   22  N1  UNL     1      50.506   3.432 109.330  1.00  0.00    -0.206 NA
HETATM   23  H14 UNL     1      49.957   3.884 110.060  1.00  0.00     0.138 HD
HETATM   24  H15 UNL     1      50.000   3.364 108.447  1.00  0.00     0.138 HD
ENDBRANCH  19  22
ENDBRANCH  18  19
ENDBRANCH  17  18
ENDBRANCH   5  17
TORSDOF 4
ENDMDL
