MODEL 1
REMARK VINA RESULT:      -8.5      0.000      0.000
REMARK  7 active torsions:
REMARK  status: ('A' for Active; 'I' for Inactive)
REMARK    1  A    between atoms: C3_3  and  O1_7 
REMARK    2  A    between atoms: C5_5  and  C13_14 
REMARK    3  A    between atoms: O1_7  and  C7_8 
REMARK    4  A    between atoms: C13_14  and  N1_15 
REMARK       I    between atoms: N2_18  and  C18_21 
REMARK    5  A    between atoms: C18_21  and  O2_22 
REMARK    6  A    between atoms: O2_22  and  C19_24 
REMARK    7  A    between atoms: C22_27  and  N3_30 
ROOT
HETATM    1  N1  UNL     1      49.502   1.383 101.067  1.00  0.00     0.095 N 
HETATM    2  C14 UNL     1      49.124   2.810 101.172  1.00  0.00     0.292 C 
HETATM    3  C15 UNL     1      48.774   3.300 102.589  1.00  0.00     0.158 C 
HETATM    4  N2  UNL     1      49.839   3.004 103.541  1.00  0.00    -0.324 N 
HETATM    5  C16 UNL     1      50.639   1.808 103.282  1.00  0.00     0.158 C 
HETATM    6  C17 UNL     1      49.899   0.810 102.372  1.00  0.00     0.292 C 
HETATM    7  C18 UNL     1      50.084   3.866 104.594  1.00  0.00     0.368 C 
HETATM    8  O3  UNL     1      49.406   4.863 104.821  1.00  0.00    -0.238 OA
ENDROOT
BRANCH   1   9
HETATM    9  C13 UNL     1      48.445   0.590 100.423  1.00  0.00     0.311 C 
BRANCH   9  10
HETATM   10  C5  UNL     1      48.333  -0.817 100.969  1.00  0.00    -0.028 A 
HETATM   11  C4  UNL     1      47.532  -1.088 102.087  1.00  0.00     0.046 A 
HETATM   12  C3  UNL     1      47.443  -2.387 102.592  1.00  0.00     0.076 A 
HETATM   13  C2  UNL     1      48.117  -3.436 101.964  1.00  0.00     0.037 A 
HETATM   14  C1  UNL     1      48.916  -3.177 100.852  1.00  0.00     0.003 A 
HETATM   15  C6  UNL     1      49.027  -1.875 100.360  1.00  0.00     0.009 A 
BRANCH  12  16
HETATM   16  O1  UNL     1      46.614  -2.581 103.671  1.00  0.00    -0.311 OA
BRANCH  16  17
HETATM   17  C7  UNL     1      47.084  -2.208 104.909  1.00  0.00     0.076 A 
HETATM   18  C8  UNL     1      47.991  -3.071 105.526  1.00  0.00     0.037 A 
HETATM   19  C9  UNL     1      48.486  -2.773 106.797  1.00  0.00     0.003 A 
HETATM   20  C10 UNL     1      48.061  -1.618 107.456  1.00  0.00     0.000 A 
HETATM   21  C11 UNL     1      47.138  -0.765 106.848  1.00  0.00     0.003 A 
HETATM   22  C12 UNL     1      46.643  -1.062 105.577  1.00  0.00     0.037 A 
ENDBRANCH  16  17
ENDBRANCH  12  16
ENDBRANCH   9  10
ENDBRANCH   1   9
BRANCH   7  23
HETATM   23  O2  UNL     1      51.185   3.470 105.350  1.00  0.00    -0.261 OA
BRANCH  23  24
HETATM   24  C19 UNL     1      50.864   3.128 106.665  1.00  0.00     0.081 A 
HETATM   25  C20 UNL     1      49.953   2.098 106.899  1.00  0.00     0.040 A 
HETATM   26  C21 UNL     1      49.658   1.733 108.214  1.00  0.00     0.039 A 
HETATM   27  C22 UNL     1      50.294   2.398 109.275  1.00  0.00     0.103 A 
HETATM   28  C23 UNL     1      51.225   3.419 109.028  1.00  0.00     0.039 A 
HETATM   29  C24 UNL     1      51.515   3.780 107.711  1.00  0.00     0.040 A 
BRANCH  27  30
HETATM   30  N3  UNL     1      49.986   2.016 110.659  1.00  0.00    -0.116 N 
HETATM   31  O4  UNL     1      50.421   2.735 111.569  1.00  0.00    -0.532 OA
HETATM   32  O5  UNL     1      49.312   0.990 110.837  1.00  0.00    -0.532 OA
ENDBRANCH  27  30
ENDBRANCH  23  24
ENDBRANCH   7  23
TORSDOF 7
ENDMDL
