MODEL 1
REMARK VINA RESULT:      -6.8      0.000      0.000
REMARK  16 active torsions:
REMARK  status: ('A' for Active; 'I' for Inactive)
REMARK    1  A    between atoms: C1_1  and  O2_17 
REMARK    2  A    between atoms: C2_2  and  C7_7 
REMARK    3  A    between atoms: C3_3  and  C6_6 
REMARK    4  A    between atoms: C6_6  and  C16_19 
REMARK    5  A    between atoms: C8_8  and  C9_9 
REMARK    6  A    between atoms: C9_9  and  C10_10 
REMARK    7  A    between atoms: C10_10  and  C11_11 
REMARK    8  A    between atoms: C10_10  and  O1_15 
REMARK    9  A    between atoms: C11_11  and  C12_12 
REMARK   10  A    between atoms: C12_12  and  C13_13 
REMARK   11  A    between atoms: C16_19  and  C17_20 
REMARK   12  A    between atoms: C17_20  and  C18_21 
REMARK   13  A    between atoms: C18_21  and  C19_22 
REMARK   14  A    between atoms: C19_22  and  C20_23 
REMARK   15  A    between atoms: C20_23  and  C21_24 
REMARK   16  A    between atoms: C21_24  and  O5_26 
ROOT
HETATM    1  C1  UNL     1      48.127  -2.234 106.343  1.00  0.00     0.133 C 
HETATM    2  C2  UNL     1      48.940  -0.933 106.476  1.00  0.00     0.048 C 
HETATM    3  C3  UNL     1      48.110   0.126 105.706  1.00  0.00     0.065 C 
HETATM    4  C4  UNL     1      46.702  -0.410 105.890  1.00  0.00     0.134 C 
HETATM    5  C5  UNL     1      46.663  -1.823 106.407  1.00  0.00     0.111 C 
HETATM    6  O3  UNL     1      45.689   0.243 105.660  1.00  0.00    -0.297 OA
ENDROOT
BRANCH   2   7
HETATM    7  C7  UNL     1      49.236  -0.447 107.883  1.00  0.00    -0.023 C 
HETATM    8  C8  UNL     1      50.090   0.518 108.266  1.00  0.00    -0.027 C 
BRANCH   8   9
HETATM    9  C9  UNL     1      50.287   0.934 109.704  1.00  0.00     0.064 C 
BRANCH   9  10
HETATM   10  C10 UNL     1      50.733   2.412 109.886  1.00  0.00     0.057 C 
HETATM   11  C15 UNL     1      50.320   2.886 111.286  1.00  0.00     0.046 C 
BRANCH  10  12
HETATM   12  C11 UNL     1      50.147   3.319 108.778  1.00  0.00     0.038 C 
BRANCH  12  13
HETATM   13  C12 UNL     1      51.182   3.850 107.776  1.00  0.00     0.002 C 
BRANCH  13  14
HETATM   14  C13 UNL     1      50.548   4.497 106.541  1.00  0.00    -0.004 C 
HETATM   15  C14 UNL     1      50.335   3.529 105.387  1.00  0.00     0.005 C 
ENDBRANCH  13  14
ENDBRANCH  12  13
ENDBRANCH  10  12
BRANCH  10  16
HETATM   16  O1  UNL     1      52.163   2.478 109.808  1.00  0.00    -0.390 OA
HETATM   17  H21 UNL     1      52.397   3.105 109.103  1.00  0.00     0.210 HD
ENDBRANCH  10  16
ENDBRANCH   9  10
ENDBRANCH   8   9
ENDBRANCH   2   7
BRANCH   1  18
HETATM   18  O2  UNL     1      48.387  -2.848 105.079  1.00  0.00    -0.394 OA
HETATM   19  H25 UNL     1      48.829  -2.188 104.519  1.00  0.00     0.210 HD
ENDBRANCH   1  18
BRANCH   3  20
HETATM   20  C6  UNL     1      48.479   0.214 104.218  1.00  0.00     0.013 C 
BRANCH  20  21
HETATM   21  C16 UNL     1      49.991   0.104 103.991  1.00  0.00     0.001 C 
BRANCH  21  22
HETATM   22  C17 UNL     1      50.383   0.004 102.511  1.00  0.00     0.000 C 
BRANCH  22  23
HETATM   23  C18 UNL     1      51.802   0.495 102.222  1.00  0.00     0.000 C 
BRANCH  23  24
HETATM   24  C19 UNL     1      51.975   2.008 102.407  1.00  0.00     0.010 C 
BRANCH  24  25
HETATM   25  C20 UNL     1      50.915   2.868 101.723  1.00  0.00     0.111 C 
BRANCH  25  26
HETATM   26  C21 UNL     1      51.402   3.490 100.438  1.00  0.00     0.258 C 
HETATM   27  O4  UNL     1      51.685   4.675 100.315  1.00  0.00    -0.265 OA
BRANCH  26  28
HETATM   28  O5  UNL     1      51.468   2.559  99.448  1.00  0.00    -0.326 OA
HETATM   29  C22 UNL     1      52.736   2.499  98.793  1.00  0.00     0.213 C 
ENDBRANCH  26  28
ENDBRANCH  25  26
ENDBRANCH  24  25
ENDBRANCH  23  24
ENDBRANCH  22  23
ENDBRANCH  21  22
ENDBRANCH  20  21
ENDBRANCH   3  20
TORSDOF 16
ENDMDL
