MODEL 1
REMARK VINA RESULT:      -6.6      0.000      0.000
REMARK  4 active torsions:
REMARK  status: ('A' for Active; 'I' for Inactive)
REMARK    1  A    between atoms: C1_1  and  C2_2 
REMARK    2  A    between atoms: C1_1  and  C3_3 
REMARK    3  A    between atoms: C9_11  and  N3_13 
REMARK       I    between atoms: N3_13  and  C10_14 
REMARK    4  A    between atoms: C10_14  and  O2_15 
ROOT
HETATM    1  C2  UNL     1      49.774   3.436 102.822  1.00  0.00     0.018 A 
HETATM    2  C4  UNL     1      49.729   2.412 103.783  1.00  0.00     0.050 A 
HETATM    3  C5  UNL     1      49.941   2.755 105.126  1.00  0.00     0.104 A 
HETATM    4  C6  UNL     1      50.203   4.079 105.463  1.00  0.00     0.078 A 
HETATM    5  C7  UNL     1      50.277   5.113 104.529  1.00  0.00     0.033 A 
HETATM    6  C8  UNL     1      50.061   4.759 103.192  1.00  0.00     0.018 A 
HETATM    7  N1  UNL     1      49.935   1.954 106.242  1.00  0.00    -0.062 NA
HETATM    8  C9  UNL     1      50.191   2.755 107.248  1.00  0.00     0.710 A 
HETATM    9  N2  UNL     1      50.360   4.049 106.824  1.00  0.00    -0.187 N 
HETATM   10  H4  UNL     1      50.569   4.829 107.436  1.00  0.00     0.184 HD
ENDROOT
BRANCH   1  11
HETATM   11  C1  UNL     1      49.568   3.136 101.378  1.00  0.00     0.199 C 
HETATM   12  O1  UNL     1      48.402   3.007 101.007  1.00  0.00    -0.286 OA
BRANCH  11  13
HETATM   13  C3  UNL     1      50.728   2.989 100.506  1.00  0.00     0.055 A 
HETATM   14  C12 UNL     1      52.072   2.871 100.818  1.00  0.00     0.023 A 
HETATM   15  C13 UNL     1      52.895   2.741  99.661  1.00  0.00     0.009 A 
HETATM   16  C14 UNL     1      52.156   2.749  98.500  1.00  0.00     0.050 A 
HETATM   17  S1  UNL     1      50.483   2.905  98.808  1.00  0.00    -0.098 SA
ENDBRANCH  11  13
ENDBRANCH   1  11
BRANCH   8  18
HETATM   18  N3  UNL     1      50.280   2.359 108.552  1.00  0.00    -0.133 N 
HETATM   19  C10 UNL     1      51.355   2.629 109.345  1.00  0.00     0.378 C 
HETATM   20  O3  UNL     1      52.357   3.250 109.010  1.00  0.00    -0.238 OA
HETATM   21  H5  UNL     1      49.507   1.837 108.938  1.00  0.00     0.190 HD
BRANCH  19  22
HETATM   22  O2  UNL     1      51.146   2.102 110.579  1.00  0.00    -0.308 OA
HETATM   23  C11 UNL     1      49.795   1.708 110.826  1.00  0.00     0.215 C 
ENDBRANCH  19  22
ENDBRANCH   8  18
TORSDOF 4
ENDMDL
