MODEL 1
REMARK VINA RESULT:      -6.9      0.000      0.000
REMARK  21 active torsions:
REMARK  status: ('A' for Active; 'I' for Inactive)
REMARK    1  A    between atoms: C1_1  and  C7_9 
REMARK    2  A    between atoms: C2_2  and  C6_6 
REMARK    3  A    between atoms: C3_3  and  O1_7 
REMARK    4  A    between atoms: C5_5  and  O2_8 
REMARK    5  A    between atoms: C6_6  and  C15_18 
REMARK    6  A    between atoms: C8_10  and  C9_11 
REMARK    7  A    between atoms: C9_11  and  C10_12 
REMARK    8  A    between atoms: C9_11  and  O3_15 
REMARK    9  A    between atoms: C10_12  and  C11_13 
REMARK   10  A    between atoms: C11_13  and  C12_14 
REMARK   11  A    between atoms: C12_14  and  C13_16 
REMARK   12  A    between atoms: C16_19  and  C17_20 
REMARK   13  A    between atoms: C17_20  and  C18_21 
REMARK   14  A    between atoms: C18_21  and  C19_22 
REMARK   15  A    between atoms: C19_22  and  C20_23 
REMARK   16  A    between atoms: C20_23  and  O4_24 
REMARK   17  A    between atoms: O4_24  and  C21_25 
REMARK   18  A    between atoms: C21_25  and  C22_27 
REMARK   19  A    between atoms: C22_27  and  C23_28 
REMARK   20  A    between atoms: C22_27  and  O7_30 
REMARK   21  A    between atoms: C23_28  and  O6_29 
ROOT
HETATM    1  C1  UNL     1      50.807   2.394 108.265  1.00  0.00     0.043 C 
HETATM    2  C2  UNL     1      49.414   1.942 108.758  1.00  0.00     0.028 C 
HETATM    3  C3  UNL     1      49.674   1.567 110.227  1.00  0.00     0.125 C 
HETATM    4  C4  UNL     1      50.764   2.522 110.715  1.00  0.00     0.064 C 
HETATM    5  C5  UNL     1      51.303   3.223 109.467  1.00  0.00     0.128 C 
ENDROOT
BRANCH   2   6
HETATM    6  C6  UNL     1      48.781   0.828 107.911  1.00  0.00     0.034 C 
BRANCH   6   7
HETATM    7  C15 UNL     1      49.820   0.040 107.157  1.00  0.00    -0.030 C 
HETATM    8  C16 UNL     1      49.886  -0.140 105.827  1.00  0.00    -0.031 C 
BRANCH   8   9
HETATM    9  C17 UNL     1      48.947   0.400 104.783  1.00  0.00     0.027 C 
BRANCH   9  10
HETATM   10  C18 UNL     1      48.588  -0.677 103.754  1.00  0.00     0.013 C 
BRANCH  10  11
HETATM   11  C19 UNL     1      47.478  -1.601 104.246  1.00  0.00     0.111 C 
BRANCH  11  12
HETATM   12  C20 UNL     1      47.908  -3.045 104.298  1.00  0.00     0.258 C 
HETATM   13  O5  UNL     1      48.048  -3.757 103.315  1.00  0.00    -0.265 OA
BRANCH  12  14
HETATM   14  O4  UNL     1      48.115  -3.434 105.586  1.00  0.00    -0.319 OA
BRANCH  14  15
HETATM   15  C21 UNL     1      47.216  -2.823 106.535  1.00  0.00     0.212 C 
BRANCH  15  16
HETATM   16  C22 UNL     1      47.467  -3.469 107.900  1.00  0.00     0.166 C 
BRANCH  16  17
HETATM   17  C23 UNL     1      47.643  -2.423 109.000  1.00  0.00     0.198 C 
BRANCH  17  18
HETATM   18  O6  UNL     1      47.855  -3.043 110.262  1.00  0.00    -0.398 OA
HETATM   19  H39 UNL     1      48.654  -2.639 110.644  1.00  0.00     0.209 HD
ENDBRANCH  17  18
ENDBRANCH  16  17
BRANCH  16  20
HETATM   20  O7  UNL     1      46.363  -4.321 108.238  1.00  0.00    -0.391 OA
HETATM   21  H40 UNL     1      46.738  -5.037 108.785  1.00  0.00     0.210 HD
ENDBRANCH  16  20
ENDBRANCH  15  16
ENDBRANCH  14  15
ENDBRANCH  12  14
ENDBRANCH  11  12
ENDBRANCH  10  11
ENDBRANCH   9  10
ENDBRANCH   8   9
ENDBRANCH   6   7
ENDBRANCH   2   6
BRANCH   1  22
HETATM   22  C7  UNL     1      50.741   3.118 106.934  1.00  0.00    -0.021 C 
HETATM   23  C8  UNL     1      50.372   4.393 106.717  1.00  0.00     0.001 C 
BRANCH  23  24
HETATM   24  C9  UNL     1      50.279   5.073 105.378  1.00  0.00     0.140 C 
BRANCH  24  25
HETATM   25  C10 UNL     1      51.032   4.333 104.260  1.00  0.00     0.036 C 
BRANCH  25  26
HETATM   26  C11 UNL     1      50.195   3.771 103.100  1.00  0.00     0.003 C 
BRANCH  26  27
HETATM   27  C12 UNL     1      50.844   2.605 102.352  1.00  0.00    -0.000 C 
BRANCH  27  28
HETATM   28  C13 UNL     1      51.965   1.929 103.148  1.00  0.00    -0.005 C 
HETATM   29  C14 UNL     1      52.123   0.450 102.832  1.00  0.00     0.005 C 
ENDBRANCH  27  28
ENDBRANCH  26  27
ENDBRANCH  25  26
ENDBRANCH  24  25
BRANCH  24  30
HETATM   30  O3  UNL     1      50.737   6.417 105.460  1.00  0.00    -0.392 OA
HETATM   31  H25 UNL     1      50.486   6.855 104.630  1.00  0.00     0.210 HD
ENDBRANCH  24  30
ENDBRANCH  23  24
ENDBRANCH   1  22
BRANCH   3  32
HETATM   32  O1  UNL     1      50.174   0.239 110.367  1.00  0.00    -0.395 OA
HETATM   33  H14 UNL     1      50.000  -0.236 109.537  1.00  0.00     0.210 HD
ENDBRANCH   3  32
BRANCH   5  34
HETATM   34  O2  UNL     1      52.723   3.309 109.496  1.00  0.00    -0.395 OA
HETATM   35  H15 UNL     1      53.056   2.969 108.649  1.00  0.00     0.210 HD
ENDBRANCH   5  34
TORSDOF 21
ENDMDL
