MODEL 1
REMARK VINA RESULT:     -10.2      0.000      0.000
REMARK  1 active torsions:
REMARK  status: ('A' for Active; 'I' for Inactive)
REMARK    1  A    between atoms: C3_3  and  C16_21 
ROOT
HETATM    1  C1  UNL     1      50.063   2.289 106.464  1.00  0.00    -0.018 A 
HETATM    2  C2  UNL     1      49.930   0.989 106.037  1.00  0.00     0.045 A 
HETATM    3  C3  UNL     1      49.893   0.494 104.626  1.00  0.00     0.172 C 
HETATM    4  N1  UNL     1      50.313   1.556 103.689  1.00  0.00    -0.323 N 
HETATM    5  C4  UNL     1      50.831   2.867 104.183  1.00  0.00     0.185 C 
HETATM    6  C5  UNL     1      50.178   3.389 105.483  1.00  0.00     0.076 C 
HETATM    7  C6  UNL     1      50.811   1.114 102.455  1.00  0.00     0.239 C 
HETATM    8  C7  UNL     1      51.393   2.213 101.566  1.00  0.00     0.228 C 
HETATM    9  N2  UNL     1      50.764   3.507 101.795  1.00  0.00    -0.346 N 
HETATM   10  C8  UNL     1      50.676   3.965 103.108  1.00  0.00     0.243 C 
HETATM   11  C9  UNL     1      50.047   2.292 107.883  1.00  0.00    -0.001 A 
HETATM   12  C10 UNL     1      49.898   0.962 108.286  1.00  0.00     0.043 A 
HETATM   13  N3  UNL     1      49.823   0.191 107.145  1.00  0.00    -0.356 N 
HETATM   14  C11 UNL     1      50.138   3.292 108.869  1.00  0.00     0.014 A 
HETATM   15  C12 UNL     1      50.081   2.931 110.220  1.00  0.00     0.001 A 
HETATM   16  C13 UNL     1      49.933   1.597 110.594  1.00  0.00     0.002 A 
HETATM   17  C14 UNL     1      49.837   0.586 109.633  1.00  0.00     0.030 A 
HETATM   18  O1  UNL     1      50.594   5.159 103.389  1.00  0.00    -0.271 OA
HETATM   19  C15 UNL     1      50.816   4.478 100.721  1.00  0.00     0.153 C 
HETATM   20  O2  UNL     1      50.890  -0.070 102.135  1.00  0.00    -0.271 OA
HETATM   21  H7  UNL     1      49.690  -0.812 107.139  1.00  0.00     0.166 HD
ENDROOT
BRANCH   3  22
HETATM   22  C16 UNL     1      48.512  -0.038 104.256  1.00  0.00    -0.027 A 
HETATM   23  C17 UNL     1      47.449   0.844 103.935  1.00  0.00     0.012 A 
HETATM   24  C18 UNL     1      46.181   0.360 103.598  1.00  0.00     0.040 A 
HETATM   25  C19 UNL     1      45.999  -1.005 103.584  1.00  0.00     0.105 A 
HETATM   26  C20 UNL     1      47.021  -1.873 103.888  1.00  0.00     0.105 A 
HETATM   27  O3  UNL     1      44.842  -1.650 103.284  1.00  0.00    -0.323 OA
HETATM   28  C21 UNL     1      48.283  -1.426 104.222  1.00  0.00     0.049 A 
HETATM   29  O4  UNL     1      46.636  -3.174 103.817  1.00  0.00    -0.323 OA
HETATM   30  C22 UNL     1      45.257  -3.026 103.416  1.00  0.00     0.352 A 
ENDBRANCH   3  22
TORSDOF 1
ENDMDL
