MODEL 1
REMARK VINA RESULT:      -7.6      0.000      0.000
REMARK  9 active torsions:
REMARK  status: ('A' for Active; 'I' for Inactive)
REMARK    1  A    between atoms: C1_1  and  C2_2 
REMARK    2  A    between atoms: C1_1  and  C3_4 
REMARK    3  A    between atoms: C2_2  and  C16_19 
REMARK    4  A    between atoms: N1_6  and  C11_13 
REMARK    5  A    between atoms: C11_13  and  C12_14 
REMARK    6  A    between atoms: C12_14  and  C13_15 
REMARK    7  A    between atoms: C13_15  and  C14_16 
REMARK    8  A    between atoms: C14_16  and  C15_17 
REMARK    9  A    between atoms: C16_19  and  C17_20 
ROOT
HETATM    1  C3  UNL     1      50.001   2.331 106.589  1.00  0.00     0.038 A 
HETATM    2  C4  UNL     1      49.437   1.096 106.321  1.00  0.00     0.107 A 
HETATM    3  N1  UNL     1      49.248   0.430 107.505  1.00  0.00    -0.355 N 
HETATM    4  C5  UNL     1      49.713   1.190 108.555  1.00  0.00     0.045 A 
HETATM    5  C6  UNL     1      50.182   2.391 108.011  1.00  0.00     0.006 A 
HETATM    6  C7  UNL     1      49.761   0.928 109.936  1.00  0.00     0.030 A 
HETATM    7  C8  UNL     1      50.290   1.910 110.778  1.00  0.00     0.002 A 
HETATM    8  C9  UNL     1      50.756   3.114 110.265  1.00  0.00     0.001 A 
HETATM    9  C10 UNL     1      50.708   3.364 108.890  1.00  0.00     0.014 A 
ENDROOT
BRANCH   1  10
HETATM   10  C1  UNL     1      50.350   3.361 105.599  1.00  0.00     0.162 C 
HETATM   11  O1  UNL     1      49.947   4.516 105.727  1.00  0.00    -0.292 OA
BRANCH  10  12
HETATM   12  C2  UNL     1      51.256   2.942 104.437  1.00  0.00     0.097 C 
BRANCH  12  13
HETATM   13  C16 UNL     1      50.558   2.384 103.162  1.00  0.00    -0.019 C 
HETATM   14  C18 UNL     1      49.062   2.780 103.192  1.00  0.00     0.020 C 
HETATM   15  C19 UNL     1      51.200   3.119 101.956  1.00  0.00     0.020 C 
BRANCH  13  16
HETATM   16  C17 UNL     1      50.755   0.869 102.929  1.00  0.00    -0.085 C 
HETATM   17  C20 UNL     1      52.176   0.357 102.841  1.00  0.00     0.043 C 
HETATM   18  C21 UNL     1      49.748  -0.018 102.819  1.00  0.00     0.014 C 
ENDBRANCH  13  16
ENDBRANCH  12  13
ENDBRANCH  10  12
ENDBRANCH   1  10
BRANCH   3  19
HETATM   19  C11 UNL     1      48.673  -0.903 107.612  1.00  0.00     0.128 C 
BRANCH  19  20
HETATM   20  C12 UNL     1      48.658  -1.674 106.288  1.00  0.00     0.020 C 
BRANCH  20  21
HETATM   21  C13 UNL     1      47.279  -2.156 105.823  1.00  0.00     0.004 C 
BRANCH  21  22
HETATM   22  C14 UNL     1      46.723  -1.506 104.552  1.00  0.00     0.031 C 
BRANCH  22  23
HETATM   23  C15 UNL     1      46.301  -0.058 104.734  1.00  0.00     0.222 C 
HETATM   24  F1  UNL     1      45.857   0.123 106.007  1.00  0.00    -0.255 F 
ENDBRANCH  22  23
ENDBRANCH  21  22
ENDBRANCH  20  21
ENDBRANCH  19  20
ENDBRANCH   3  19
TORSDOF 9
ENDMDL
