MODEL 1
REMARK VINA RESULT:      -7.8      0.000      0.000
REMARK  6 active torsions:
REMARK  status: ('A' for Active; 'I' for Inactive)
REMARK    1  A    between atoms: C4_4  and  N1_8 
REMARK    2  A    between atoms: C6_6  and  C9_13 
REMARK    3  A    between atoms: N1_8  and  S1_9 
REMARK    4  A    between atoms: C11_17  and  N4_19 
REMARK       I    between atoms: N4_19  and  C13_20 
REMARK    5  A    between atoms: C13_20  and  O3_21 
REMARK    6  A    between atoms: O3_21  and  C14_23 
ROOT
HETATM    1  C9  UNL     1      49.817   2.029 106.171  1.00  0.00     0.090 A 
HETATM    2  N2  UNL     1      50.174   2.518 107.325  1.00  0.00    -0.164 NA
HETATM    3  N3  UNL     1      49.977   1.658 108.364  1.00  0.00    -0.195 N 
HETATM    4  C10 UNL     1      49.472   0.379 108.311  1.00  0.00     0.201 A 
HETATM    5  C11 UNL     1      49.115  -0.137 107.043  1.00  0.00     0.089 A 
HETATM    6  C12 UNL     1      49.279   0.646 105.966  1.00  0.00     0.068 A 
HETATM    7  C16 UNL     1      50.239   1.886 109.694  1.00  0.00     0.148 A 
HETATM    8  N5  UNL     1      49.916   0.816 110.395  1.00  0.00    -0.133 NA
HETATM    9  N6  UNL     1      49.434  -0.135 109.524  1.00  0.00    -0.126 NA
HETATM   10  C17 UNL     1      50.791   3.158 110.201  1.00  0.00     0.095 C 
ENDROOT
BRANCH   1  11
HETATM   11  C6  UNL     1      49.965   2.881 104.955  1.00  0.00    -0.004 A 
HETATM   12  C1  UNL     1      50.208   4.255 105.033  1.00  0.00     0.014 A 
HETATM   13  C2  UNL     1      50.355   5.008 103.863  1.00  0.00     0.009 A 
HETATM   14  C3  UNL     1      50.267   4.402 102.600  1.00  0.00    -0.040 A 
HETATM   15  C4  UNL     1      50.030   3.020 102.534  1.00  0.00     0.029 A 
HETATM   16  C7  UNL     1      50.466   5.237 101.367  1.00  0.00     0.050 C 
HETATM   17  C5  UNL     1      49.894   2.265 103.701  1.00  0.00     0.038 A 
BRANCH  15  18
HETATM   18  N1  UNL     1      49.999   2.332 101.281  1.00  0.00    -0.185 NA
HETATM   19  H7  UNL     1      49.609   2.865 100.501  1.00  0.00     0.146 HD
BRANCH  18  20
HETATM   20  S1  UNL     1      51.442   1.605 100.770  1.00  0.00     0.210 S 
HETATM   21  C8  UNL     1      51.104  -0.108 101.108  1.00  0.00     0.180 C 
HETATM   22  O1  UNL     1      51.462   1.772  99.331  1.00  0.00    -0.211 OA
HETATM   23  O2  UNL     1      52.546   2.042 101.594  1.00  0.00    -0.211 OA
ENDBRANCH  18  20
ENDBRANCH  15  18
ENDBRANCH   1  11
BRANCH   5  24
HETATM   24  N4  UNL     1      48.637  -1.426 107.033  1.00  0.00    -0.299 N 
HETATM   25  C13 UNL     1      47.346  -1.867 107.019  1.00  0.00     0.365 C 
HETATM   26  O4  UNL     1      46.336  -1.180 107.010  1.00  0.00    -0.238 OA
HETATM   27  H12 UNL     1      49.331  -2.167 107.053  1.00  0.00     0.171 HD
BRANCH  25  28
HETATM   28  O3  UNL     1      47.354  -3.225 107.016  1.00  0.00    -0.304 OA
BRANCH  28  29
HETATM   29  C14 UNL     1      48.631  -3.811 106.740  1.00  0.00     0.176 C 
HETATM   30  C15 UNL     1      48.596  -5.258 107.191  1.00  0.00     0.034 C 
ENDBRANCH  28  29
ENDBRANCH  25  28
ENDBRANCH   5  24
TORSDOF 6
ENDMDL
