MODEL 1
REMARK VINA RESULT:      -7.4      0.000      0.000
REMARK  6 active torsions:
REMARK  status: ('A' for Active; 'I' for Inactive)
REMARK    1  A    between atoms: C1_1  and  C7_7 
REMARK    2  A    between atoms: C4_4  and  O1_8 
REMARK    3  A    between atoms: O1_8  and  C8_9 
REMARK    4  A    between atoms: C8_9  and  C9_10 
REMARK    5  A    between atoms: C13_15  and  C16_19 
REMARK    6  A    between atoms: C16_19  and  O3_22 
ROOT
HETATM    1  C1  UNL     1      50.573   2.565 104.168  1.00  0.00     0.001 A 
HETATM    2  C2  UNL     1      49.856   1.418 104.535  1.00  0.00     0.039 A 
HETATM    3  C3  UNL     1      49.486   1.188 105.874  1.00  0.00     0.078 A 
HETATM    4  C4  UNL     1      49.827   2.110 106.875  1.00  0.00     0.089 A 
HETATM    5  C5  UNL     1      50.548   3.252 106.521  1.00  0.00     0.039 A 
HETATM    6  C6  UNL     1      50.915   3.470 105.187  1.00  0.00     0.017 A 
HETATM    7  C15 UNL     1      48.746  -0.002 106.187  1.00  0.00     0.102 C 
HETATM    8  N2  UNL     1      48.142  -0.973 106.392  1.00  0.00    -0.191 NA
ENDROOT
BRANCH   4   9
HETATM    9  O1  UNL     1      49.420   1.811 108.147  1.00  0.00    -0.349 OA
BRANCH   9  10
HETATM   10  C8  UNL     1      50.248   0.947 108.929  1.00  0.00     0.179 C 
BRANCH  10  11
HETATM   11  C9  UNL     1      51.006   1.790 109.965  1.00  0.00     0.002 C 
HETATM   12  C10 UNL     1      52.306   2.356 109.381  1.00  0.00     0.011 C 
HETATM   13  C11 UNL     1      50.121   2.922 110.483  1.00  0.00     0.011 C 
ENDBRANCH  10  11
ENDBRANCH   9  10
ENDBRANCH   4   9
BRANCH   1  14
HETATM   14  C7  UNL     1      50.982   2.870 102.780  1.00  0.00     0.109 A 
HETATM   15  N1  UNL     1      50.439   3.828 102.054  1.00  0.00    -0.244 NA
HETATM   16  C12 UNL     1      50.998   3.869 100.787  1.00  0.00     0.056 A 
HETATM   17  C13 UNL     1      51.977   2.917 100.549  1.00  0.00     0.104 A 
HETATM   18  C14 UNL     1      50.500   4.902  99.836  1.00  0.00     0.072 C 
HETATM   19  S1  UNL     1      52.195   1.971 101.959  1.00  0.00    -0.061 SA
BRANCH  17  20
HETATM   20  C16 UNL     1      52.725   2.700  99.336  1.00  0.00     0.185 C 
HETATM   21  O2  UNL     1      52.364   2.081  98.345  1.00  0.00    -0.646 OA
BRANCH  20  22
HETATM   22  O3  UNL     1      53.952   3.269  99.352  1.00  0.00    -0.772 OA
HETATM   23  H16 UNL     1      54.403   2.825 100.100  1.00  0.00     0.167 HD
ENDBRANCH  20  22
ENDBRANCH  17  20
ENDBRANCH   1  14
TORSDOF 6
ENDMDL
