MODEL 1
REMARK VINA RESULT:      -8.4      0.000      0.000
REMARK  9 active torsions:
REMARK  status: ('A' for Active; 'I' for Inactive)
REMARK    1  A    between atoms: C1_1  and  O2_11 
REMARK    2  A    between atoms: C6_6  and  C16_20 
REMARK    3  A    between atoms: C8_8  and  C10_13 
REMARK    4  A    between atoms: C13_16  and  O4_19 
REMARK    5  A    between atoms: C17_21  and  O8_29 
REMARK    6  A    between atoms: C18_22  and  O6_26 
REMARK    7  A    between atoms: C19_23  and  O7_28 
REMARK    8  A    between atoms: C20_24  and  C21_27 
REMARK    9  A    between atoms: C21_27  and  O9_30 
ROOT
HETATM    1  C1  UNL     1      47.428  -0.410 101.833  1.00  0.00     0.077 A 
HETATM    2  C2  UNL     1      46.792  -1.144 102.836  1.00  0.00     0.038 A 
HETATM    3  C3  UNL     1      47.111  -0.911 104.170  1.00  0.00     0.021 A 
HETATM    4  C4  UNL     1      48.071   0.050 104.494  1.00  0.00     0.050 A 
HETATM    5  C5  UNL     1      48.708   0.785 103.490  1.00  0.00     0.101 A 
HETATM    6  C6  UNL     1      48.393   0.568 102.132  1.00  0.00     0.041 A 
HETATM    7  C7  UNL     1      48.416   0.294 105.907  1.00  0.00     0.197 A 
HETATM    8  C8  UNL     1      49.467   1.314 106.173  1.00  0.00     0.048 A 
HETATM    9  C9  UNL     1      49.983   1.941 105.106  1.00  0.00     0.159 A 
HETATM   10  O1  UNL     1      49.656   1.734 103.791  1.00  0.00    -0.320 OA
HETATM   11  O3  UNL     1      47.854  -0.329 106.803  1.00  0.00    -0.286 OA
ENDROOT
BRANCH   6  12
HETATM   12  C16 UNL     1      49.045   1.370 101.015  1.00  0.00     0.192 C 
HETATM   13  C17 UNL     1      48.961   2.892 101.251  1.00  0.00     0.183 C 
HETATM   14  C18 UNL     1      49.582   3.643 100.058  1.00  0.00     0.181 C 
HETATM   15  C19 UNL     1      50.698   2.852  99.359  1.00  0.00     0.180 C 
HETATM   16  C20 UNL     1      51.339   1.801 100.274  1.00  0.00     0.177 C 
HETATM   17  O5  UNL     1      50.402   0.899 100.885  1.00  0.00    -0.368 OA
BRANCH  13  18
HETATM   18  O8  UNL     1      47.615   3.353 101.431  1.00  0.00    -0.390 OA
HETATM   19  H19 UNL     1      47.283   3.564 100.541  1.00  0.00     0.210 HD
ENDBRANCH  13  18
BRANCH  14  20
HETATM   20  O6  UNL     1      50.086   4.901 100.538  1.00  0.00    -0.390 OA
HETATM   21  H15 UNL     1      50.979   4.727 100.890  1.00  0.00     0.210 HD
ENDBRANCH  14  20
BRANCH  15  22
HETATM   22  O7  UNL     1      50.118   2.213  98.208  1.00  0.00    -0.390 OA
HETATM   23  H18 UNL     1      50.332   2.739  97.418  1.00  0.00     0.210 HD
ENDBRANCH  15  22
BRANCH  16  24
HETATM   24  C21 UNL     1      52.225   2.421 101.365  1.00  0.00     0.198 C 
BRANCH  24  25
HETATM   25  O9  UNL     1      52.315   1.521 102.471  1.00  0.00    -0.398 OA
HETATM   26  H20 UNL     1      51.666   1.849 103.128  1.00  0.00     0.209 HD
ENDBRANCH  24  25
ENDBRANCH  16  24
ENDBRANCH   6  12
BRANCH   1  27
HETATM   27  O2  UNL     1      47.105  -0.652 100.526  1.00  0.00    -0.360 OA
HETATM   28  H4  UNL     1      47.663  -0.104  99.948  1.00  0.00     0.217 HD
ENDBRANCH   1  27
BRANCH   8  29
HETATM   29  C10 UNL     1      49.916   1.653 107.535  1.00  0.00    -0.020 A 
HETATM   30  C11 UNL     1      50.024   0.662 108.526  1.00  0.00     0.015 A 
HETATM   31  C12 UNL     1      50.451   0.990 109.814  1.00  0.00     0.037 A 
HETATM   32  C13 UNL     1      50.770   2.308 110.120  1.00  0.00     0.065 A 
HETATM   33  C14 UNL     1      50.664   3.307 109.160  1.00  0.00     0.037 A 
HETATM   34  C15 UNL     1      50.233   2.977 107.871  1.00  0.00     0.015 A 
BRANCH  32  35
HETATM   35  O4  UNL     1      51.187   2.584 111.388  1.00  0.00    -0.361 OA
HETATM   36  H9  UNL     1      51.659   1.809 111.733  1.00  0.00     0.217 HD
ENDBRANCH  32  35
ENDBRANCH   8  29
TORSDOF 9
ENDMDL
