MODEL 1
REMARK VINA RESULT:      -7.3      0.000      0.000
REMARK  6 active torsions:
REMARK  status: ('A' for Active; 'I' for Inactive)
REMARK    1  A    between atoms: C7_8  and  N2_11 
REMARK       I    between atoms: N2_11  and  C8_12 
REMARK    2  A    between atoms: C8_12  and  C9_14 
REMARK    3  A    between atoms: C9_14  and  C10_15 
REMARK    4  A    between atoms: C10_15  and  C11_16 
REMARK    5  A    between atoms: C14_19  and  O3_23 
REMARK    6  A    between atoms: C15_20  and  O2_22 
ROOT
HETATM    1  N2  UNL     1      49.632   0.453 103.709  1.00  0.00    -0.306 N 
HETATM    2  C8  UNL     1      50.657   0.218 102.818  1.00  0.00     0.223 C 
HETATM    3  O1  UNL     1      51.856   0.366 103.016  1.00  0.00    -0.273 OA
HETATM    4  H4  UNL     1      48.675   0.292 103.427  1.00  0.00     0.171 HD
ENDROOT
BRANCH   2   5
HETATM    5  C9  UNL     1      50.118  -0.271 101.485  1.00  0.00     0.108 C 
BRANCH   5   6
HETATM    6  C10 UNL     1      49.210   0.762 100.821  1.00  0.00     0.048 C 
BRANCH   6   7
HETATM    7  C11 UNL     1      49.947   2.054 100.566  1.00  0.00    -0.055 A 
HETATM    8  C12 UNL     1      50.687   2.227  99.394  1.00  0.00     0.010 A 
HETATM    9  C13 UNL     1      51.346   3.435  99.143  1.00  0.00     0.040 A 
HETATM   10  C14 UNL     1      51.272   4.487 100.061  1.00  0.00     0.101 A 
HETATM   11  C15 UNL     1      50.529   4.322 101.246  1.00  0.00     0.102 A 
HETATM   12  C16 UNL     1      49.870   3.109 101.488  1.00  0.00     0.046 A 
BRANCH  10  13
HETATM   13  O3  UNL     1      51.883   5.705  99.895  1.00  0.00    -0.353 OA
HETATM   14  C17 UNL     1      52.001   6.208  98.573  1.00  0.00     0.210 C 
ENDBRANCH  10  13
BRANCH  11  15
HETATM   15  O2  UNL     1      50.500   5.401 102.095  1.00  0.00    -0.353 OA
HETATM   16  C18 UNL     1      50.259   5.151 103.471  1.00  0.00     0.210 C 
ENDBRANCH  11  15
ENDBRANCH   6   7
ENDBRANCH   5   6
ENDBRANCH   2   5
BRANCH   1  17
HETATM   17  C7  UNL     1      49.740   0.899 105.003  1.00  0.00     0.174 A 
HETATM   18  S1  UNL     1      49.396  -0.071 106.354  1.00  0.00    -0.050 SA
HETATM   19  C4  UNL     1      49.787   1.239 107.400  1.00  0.00     0.038 A 
HETATM   20  C3  UNL     1      49.769   1.292 108.803  1.00  0.00     0.045 A 
HETATM   21  C5  UNL     1      50.157   2.337 106.619  1.00  0.00     0.077 A 
HETATM   22  C2  UNL     1      50.135   2.494 109.413  1.00  0.00     0.035 A 
HETATM   23  C1  UNL     1      50.508   3.605 108.663  1.00  0.00     0.026 A 
HETATM   24 CL1  UNL     1      50.125   2.601 111.133  1.00  0.00    -0.084 Cl
HETATM   25  C6  UNL     1      50.523   3.536 107.265  1.00  0.00     0.035 A 
HETATM   26  N1  UNL     1      50.125   2.127 105.252  1.00  0.00    -0.223 NA
ENDBRANCH   1  17
TORSDOF 6
ENDMDL
