MODEL 1
REMARK VINA RESULT:      -7.1      0.000      0.000
REMARK  16 active torsions:
REMARK  status: ('A' for Active; 'I' for Inactive)
REMARK    1  A    between atoms: C1_1  and  O2_21 
REMARK    2  A    between atoms: C2_2  and  C10_11 
REMARK    3  A    between atoms: C3_3  and  C6_6 
REMARK    4  A    between atoms: C6_6  and  C7_7 
REMARK    5  A    between atoms: C8_8  and  C9_9 
REMARK    6  A    between atoms: C9_9  and  C11_12 
REMARK    7  A    between atoms: C11_12  and  C12_13 
REMARK    8  A    between atoms: C12_13  and  C20_23 
REMARK    9  A    between atoms: C13_14  and  C14_15 
REMARK   10  A    between atoms: C14_15  and  C15_16 
REMARK   11  A    between atoms: C14_15  and  O3_22 
REMARK   12  A    between atoms: C15_16  and  C16_17 
REMARK   13  A    between atoms: C16_17  and  C17_18 
REMARK   14  A    between atoms: C17_18  and  C18_19 
REMARK   15  A    between atoms: C20_23  and  O5_25 
REMARK   16  A    between atoms: O5_25  and  C21_26 
ROOT
HETATM    1  C1  UNL     1      48.210  -2.026 107.195  1.00  0.00     0.133 C 
HETATM    2  C2  UNL     1      49.186  -1.027 106.536  1.00  0.00     0.048 C 
HETATM    3  C3  UNL     1      48.418  -0.622 105.251  1.00  0.00     0.069 C 
HETATM    4  C4  UNL     1      46.993  -0.605 105.760  1.00  0.00     0.134 C 
HETATM    5  C5  UNL     1      46.816  -1.431 107.008  1.00  0.00     0.111 C 
HETATM    6  O1  UNL     1      46.068  -0.005 105.224  1.00  0.00    -0.297 OA
ENDROOT
BRANCH   3   7
HETATM    7  C6  UNL     1      48.806   0.674 104.543  1.00  0.00     0.040 C 
BRANCH   7   8
HETATM    8  C7  UNL     1      49.050   0.477 103.069  1.00  0.00    -0.030 C 
HETATM    9  C8  UNL     1      50.243   0.333 102.470  1.00  0.00    -0.031 C 
BRANCH   9  10
HETATM   10  C9  UNL     1      51.594   0.400 103.127  1.00  0.00     0.027 C 
BRANCH  10  11
HETATM   11  C11 UNL     1      52.464   1.554 102.612  1.00  0.00     0.013 C 
BRANCH  11  12
HETATM   12  C12 UNL     1      51.746   2.522 101.673  1.00  0.00     0.111 C 
BRANCH  12  13
HETATM   13  C20 UNL     1      52.275   2.442 100.262  1.00  0.00     0.259 C 
HETATM   14  O4  UNL     1      53.344   2.911  99.897  1.00  0.00    -0.265 OA
BRANCH  13  15
HETATM   15  O5  UNL     1      51.399   1.764  99.471  1.00  0.00    -0.317 OA
BRANCH  15  16
HETATM   16  C21 UNL     1      50.336   2.544  98.892  1.00  0.00     0.123 C 
HETATM   17  C22 UNL     1      49.039   1.782  99.130  1.00  0.00     0.040 C 
HETATM   18  C23 UNL     1      50.592   2.724  97.400  1.00  0.00     0.040 C 
ENDBRANCH  15  16
ENDBRANCH  13  15
ENDBRANCH  12  13
ENDBRANCH  11  12
ENDBRANCH  10  11
ENDBRANCH   9  10
ENDBRANCH   7   8
ENDBRANCH   3   7
BRANCH   2  19
HETATM   19  C10 UNL     1      49.636   0.140 107.400  1.00  0.00    -0.020 C 
HETATM   20  C13 UNL     1      49.614   0.243 108.741  1.00  0.00     0.001 C 
BRANCH  20  21
HETATM   21  C14 UNL     1      50.084   1.403 109.585  1.00  0.00     0.140 C 
BRANCH  21  22
HETATM   22  C15 UNL     1      51.563   1.799 109.449  1.00  0.00     0.036 C 
BRANCH  22  23
HETATM   23  C16 UNL     1      51.808   3.101 108.669  1.00  0.00     0.003 C 
BRANCH  23  24
HETATM   24  C17 UNL     1      50.539   3.786 108.160  1.00  0.00    -0.000 C 
BRANCH  24  25
HETATM   25  C18 UNL     1      50.686   4.356 106.745  1.00  0.00    -0.005 C 
HETATM   26  C19 UNL     1      50.940   3.297 105.684  1.00  0.00     0.005 C 
ENDBRANCH  24  25
ENDBRANCH  23  24
ENDBRANCH  22  23
ENDBRANCH  21  22
BRANCH  21  27
HETATM   27  O3  UNL     1      49.792   1.034 110.928  1.00  0.00    -0.392 OA
HETATM   28  H31 UNL     1      50.457   1.464 111.493  1.00  0.00     0.210 HD
ENDBRANCH  21  27
ENDBRANCH  20  21
ENDBRANCH   2  19
BRANCH   1  29
HETATM   29  O2  UNL     1      48.290  -3.279 106.511  1.00  0.00    -0.394 OA
HETATM   30  H30 UNL     1      48.024  -3.978 107.137  1.00  0.00     0.210 HD
ENDBRANCH   1  29
TORSDOF 16
ENDMDL
