MODEL 1
REMARK VINA RESULT:      -8.0      0.000      0.000
REMARK  8 active torsions:
REMARK  status: ('A' for Active; 'I' for Inactive)
REMARK    1  A    between atoms: C1_1  and  C2_2 
REMARK    2  A    between atoms: C1_1  and  C3_4 
REMARK    3  A    between atoms: N1_6  and  C11_13 
REMARK    4  A    between atoms: C8_10  and  O2_25 
REMARK    5  A    between atoms: C11_13  and  C12_14 
REMARK    6  A    between atoms: C12_14  and  C13_15 
REMARK    7  A    between atoms: C13_15  and  C14_16 
REMARK    8  A    between atoms: C14_16  and  C15_17 
ROOT
HETATM    1  C2  UNL     1      49.692   1.286 105.400  1.00  0.00     0.038 A 
HETATM    2  C4  UNL     1      49.889   1.657 106.719  1.00  0.00     0.107 A 
HETATM    3  N1  UNL     1      50.235   2.977 106.765  1.00  0.00    -0.355 N 
HETATM    4  C5  UNL     1      50.243   3.508 105.494  1.00  0.00     0.048 A 
HETATM    5  C6  UNL     1      49.883   2.474 104.614  1.00  0.00     0.006 A 
HETATM    6  C7  UNL     1      50.532   4.812 105.046  1.00  0.00     0.067 A 
HETATM    7  C8  UNL     1      50.431   5.066 103.680  1.00  0.00     0.067 A 
HETATM    8  C9  UNL     1      50.054   4.079 102.784  1.00  0.00     0.037 A 
HETATM    9  C10 UNL     1      49.775   2.787 103.239  1.00  0.00     0.017 A 
ENDROOT
BRANCH   1  10
HETATM   10  C1  UNL     1      49.343  -0.083 105.025  1.00  0.00     0.167 C 
HETATM   11  O1  UNL     1      49.299  -0.456 103.857  1.00  0.00    -0.292 OA
BRANCH  10  12
HETATM   12  C3  UNL     1      49.058  -1.053 106.123  1.00  0.00     0.077 A 
HETATM   13  C16 UNL     1      48.242  -2.324 105.867  1.00  0.00    -0.029 A 
HETATM   14  C17 UNL     1      47.684  -1.221 106.778  1.00  0.00    -0.029 A 
HETATM   15  C18 UNL     1      47.587  -2.572 104.523  1.00  0.00     0.016 C 
HETATM   16  C19 UNL     1      48.763  -3.609 106.477  1.00  0.00     0.016 C 
HETATM   17  C20 UNL     1      47.628  -1.477 108.270  1.00  0.00     0.016 C 
HETATM   18  C21 UNL     1      46.511  -0.387 106.306  1.00  0.00     0.016 C 
ENDBRANCH  10  12
ENDBRANCH   1  10
BRANCH   3  19
HETATM   19  C11 UNL     1      50.530   3.695 107.998  1.00  0.00     0.128 C 
BRANCH  19  20
HETATM   20  C12 UNL     1      51.867   3.264 108.599  1.00  0.00     0.020 C 
BRANCH  20  21
HETATM   21  C13 UNL     1      51.722   2.394 109.850  1.00  0.00     0.004 C 
BRANCH  21  22
HETATM   22  C14 UNL     1      50.429   2.649 110.622  1.00  0.00     0.031 C 
BRANCH  22  23
HETATM   23  C15 UNL     1      49.491   1.456 110.557  1.00  0.00     0.222 C 
HETATM   24  F1  UNL     1      50.201   0.366 110.166  1.00  0.00    -0.255 F 
ENDBRANCH  22  23
ENDBRANCH  21  22
ENDBRANCH  20  21
ENDBRANCH  19  20
ENDBRANCH   3  19
BRANCH   7  25
HETATM   25  O2  UNL     1      50.698   6.304 103.174  1.00  0.00    -0.361 OA
HETATM   26  H28 UNL     1      49.866   6.797 103.105  1.00  0.00     0.217 HD
ENDBRANCH   7  25
TORSDOF 8
ENDMDL
