MODEL 1
REMARK VINA RESULT:      -8.2      0.000      0.000
REMARK  9 active torsions:
REMARK  status: ('A' for Active; 'I' for Inactive)
REMARK    1  A    between atoms: C1_1  and  C2_2 
REMARK    2  A    between atoms: C1_1  and  C3_4 
REMARK    3  A    between atoms: C6_7  and  O2_23 
REMARK    4  A    between atoms: N1_11  and  C16_18 
REMARK    5  A    between atoms: C16_18  and  C17_19 
REMARK    6  A    between atoms: C17_19  and  C18_20 
REMARK    7  A    between atoms: C18_20  and  C19_21 
REMARK    8  A    between atoms: C19_21  and  C20_22 
REMARK    9  A    between atoms: C20_22  and  O3_25 
ROOT
HETATM    1  C2  UNL     1      50.094   2.761 106.837  1.00  0.00     0.043 A 
HETATM    2  C9  UNL     1      49.680   1.559 106.292  1.00  0.00     0.107 A 
HETATM    3  N1  UNL     1      49.450   0.672 107.305  1.00  0.00    -0.355 N 
HETATM    4  C10 UNL     1      49.738   1.254 108.521  1.00  0.00     0.045 A 
HETATM    5  C11 UNL     1      50.169   2.561 108.259  1.00  0.00     0.006 A 
HETATM    6  C12 UNL     1      49.670   0.738 109.827  1.00  0.00     0.030 A 
HETATM    7  C13 UNL     1      50.061   1.559 110.886  1.00  0.00     0.002 A 
HETATM    8  C14 UNL     1      50.516   2.851 110.654  1.00  0.00     0.001 A 
HETATM    9  C15 UNL     1      50.579   3.359 109.350  1.00  0.00     0.015 A 
ENDROOT
BRANCH   1  10
HETATM   10  C1  UNL     1      50.414   3.934 106.028  1.00  0.00     0.194 C 
HETATM   11  O1  UNL     1      50.568   5.048 106.523  1.00  0.00    -0.287 OA
BRANCH  10  12
HETATM   12  C3  UNL     1      50.589   3.786 104.560  1.00  0.00     0.015 A 
HETATM   13  C4  UNL     1      49.782   4.479 103.650  1.00  0.00     0.018 A 
HETATM   14  C5  UNL     1      49.961   4.305 102.272  1.00  0.00     0.037 A 
HETATM   15  C6  UNL     1      50.937   3.427 101.797  1.00  0.00     0.068 A 
HETATM   16  C7  UNL     1      51.726   2.719 102.710  1.00  0.00     0.037 A 
HETATM   17  C8  UNL     1      51.551   2.888 104.085  1.00  0.00     0.018 A 
BRANCH  15  18
HETATM   18  O2  UNL     1      51.216   3.169 100.485  1.00  0.00    -0.356 OA
HETATM   19  C21 UNL     1      51.672   1.859 100.166  1.00  0.00     0.210 C 
ENDBRANCH  15  18
ENDBRANCH  10  12
ENDBRANCH   1  10
BRANCH   3  20
HETATM   20  C16 UNL     1      49.002  -0.699 107.102  1.00  0.00     0.128 C 
BRANCH  20  21
HETATM   21  C17 UNL     1      47.591  -0.759 106.518  1.00  0.00     0.020 C 
BRANCH  21  22
HETATM   22  C18 UNL     1      46.870  -2.075 106.819  1.00  0.00     0.004 C 
BRANCH  22  23
HETATM   23  C19 UNL     1      46.567  -2.273 108.309  1.00  0.00     0.026 C 
BRANCH  23  24
HETATM   24  C20 UNL     1      47.427  -3.373 108.924  1.00  0.00     0.164 C 
BRANCH  24  25
HETATM   25  O3  UNL     1      47.876  -2.991 110.216  1.00  0.00    -0.401 OA
HETATM   26  H23 UNL     1      47.099  -2.953 110.799  1.00  0.00     0.209 HD
ENDBRANCH  24  25
ENDBRANCH  23  24
ENDBRANCH  22  23
ENDBRANCH  21  22
ENDBRANCH  20  21
ENDBRANCH   3  20
TORSDOF 9
ENDMDL
