MODEL 1
REMARK VINA RESULT:      -8.6      0.000      0.000
REMARK  8 active torsions:
REMARK  status: ('A' for Active; 'I' for Inactive)
REMARK    1  A    between atoms: C1_1  and  C2_2 
REMARK    2  A    between atoms: C1_1  and  C3_4 
REMARK    3  A    between atoms: C3_4  and  C16_19 
REMARK    4  A    between atoms: N1_6  and  C11_13 
REMARK    5  A    between atoms: C11_13  and  C12_14 
REMARK    6  A    between atoms: C12_14  and  C13_15 
REMARK    7  A    between atoms: C13_15  and  C14_16 
REMARK    8  A    between atoms: C14_16  and  O2_18 
ROOT
HETATM    1  C2  UNL     1      50.141   2.444 106.372  1.00  0.00     0.038 A 
HETATM    2  C4  UNL     1      49.657   1.199 106.002  1.00  0.00     0.107 A 
HETATM    3  N1  UNL     1      49.434   0.451 107.123  1.00  0.00    -0.355 N 
HETATM    4  C5  UNL     1      49.769   1.176 108.246  1.00  0.00     0.045 A 
HETATM    5  C6  UNL     1      50.214   2.436 107.811  1.00  0.00     0.006 A 
HETATM    6  C7  UNL     1      49.712   0.831 109.610  1.00  0.00     0.030 A 
HETATM    7  C8  UNL     1      50.109   1.777 110.556  1.00  0.00     0.002 A 
HETATM    8  C9  UNL     1      50.556   3.030 110.160  1.00  0.00     0.001 A 
HETATM    9  C10 UNL     1      50.617   3.366 108.802  1.00  0.00     0.014 A 
ENDROOT
BRANCH   1  10
HETATM   10  C1  UNL     1      50.477   3.477 105.378  1.00  0.00     0.166 C 
HETATM   11  O1  UNL     1      49.739   4.454 105.234  1.00  0.00    -0.292 OA
BRANCH  10  12
HETATM   12  C3  UNL     1      51.725   3.300 104.528  1.00  0.00     0.124 C 
BRANCH  12  13
HETATM   13  C16 UNL     1      51.514   2.482 103.271  1.00  0.00    -0.029 A 
HETATM   14  C17 UNL     1      50.903   3.011 102.122  1.00  0.00     0.040 A 
HETATM   15  C18 UNL     1      50.722   2.216 100.985  1.00  0.00     0.024 A 
HETATM   16 CL1  UNL     1      50.357   4.650 102.053  1.00  0.00    -0.084 Cl
HETATM   17  C19 UNL     1      51.131   0.881 100.987  1.00  0.00     0.002 A 
HETATM   18  C20 UNL     1      51.720   0.338 102.127  1.00  0.00     0.001 A 
HETATM   19  C21 UNL     1      51.909   1.130 103.260  1.00  0.00     0.009 A 
ENDBRANCH  12  13
ENDBRANCH  10  12
ENDBRANCH   1  10
BRANCH   3  20
HETATM   20  C11 UNL     1      48.940  -0.918 107.092  1.00  0.00     0.129 C 
BRANCH  20  21
HETATM   21  C12 UNL     1      47.429  -1.025 106.874  1.00  0.00     0.023 C 
BRANCH  21  22
HETATM   22  C13 UNL     1      46.713  -1.826 107.971  1.00  0.00     0.033 C 
BRANCH  22  23
HETATM   23  C14 UNL     1      47.567  -2.997 108.469  1.00  0.00     0.114 C 
HETATM   24  C15 UNL     1      47.018  -4.336 107.990  1.00  0.00     0.039 C 
BRANCH  23  25
HETATM   25  O2  UNL     1      47.596  -2.993 109.893  1.00  0.00    -0.396 OA
HETATM   26  H18 UNL     1      48.058  -3.800 110.185  1.00  0.00     0.210 HD
ENDBRANCH  23  25
ENDBRANCH  22  23
ENDBRANCH  21  22
ENDBRANCH  20  21
ENDBRANCH   3  20
TORSDOF 8
ENDMDL
