MODEL 1
REMARK VINA RESULT:      -9.0      0.000      0.000
REMARK  2 active torsions:
REMARK  status: ('A' for Active; 'I' for Inactive)
REMARK       I    between atoms: N2_15  and  C14_16 
REMARK    1  A    between atoms: C14_16  and  C15_18 
REMARK    2  A    between atoms: C15_18  and  N3_19 
ROOT
HETATM    1  C1  UNL     1      50.489   2.928 110.593  1.00  0.00     0.001 A 
HETATM    2  C2  UNL     1      49.982   1.677 110.829  1.00  0.00     0.001 A 
HETATM    3  C3  UNL     1      49.590   0.819 109.819  1.00  0.00     0.013 A 
HETATM    4  C4  UNL     1      49.714   1.241 108.519  1.00  0.00    -0.008 A 
HETATM    5  C5  UNL     1      50.228   2.506 108.266  1.00  0.00     0.043 A 
HETATM    6  C6  UNL     1      50.617   3.352 109.310  1.00  0.00     0.018 A 
HETATM    7  C7  UNL     1      49.349   0.449 107.444  1.00  0.00     0.004 A 
HETATM    8  C8  UNL     1      49.498   0.928 106.135  1.00  0.00     0.046 A 
HETATM    9  N1  UNL     1      50.000   2.165 105.918  1.00  0.00    -0.322 N 
HETATM   10  C9  UNL     1      50.354   2.930 106.959  1.00  0.00     0.257 A 
HETATM   11  C10 UNL     1      48.845  -0.791 107.660  1.00  0.00     0.044 A 
HETATM   12  C11 UNL     1      48.458  -1.633 106.600  1.00  0.00     0.035 A 
HETATM   13  C12 UNL     1      48.602  -1.172 105.329  1.00  0.00     0.032 A 
HETATM   14  C13 UNL     1      49.123   0.113 105.093  1.00  0.00     0.033 A 
HETATM   15  N2  UNL     1      47.930  -2.894 106.893  1.00  0.00    -0.326 N 
HETATM   16  C14 UNL     1      47.720  -3.973 106.006  1.00  0.00     0.250 C 
HETATM   17  O1  UNL     1      48.036  -3.833 104.801  1.00  0.00    -0.271 OA
HETATM   18  O2  UNL     1      50.818   4.076 106.719  1.00  0.00    -0.267 OA
HETATM   19 CL1  UNL     1      48.086  -1.921 107.586  1.00  0.00    -0.145 Cl
HETATM   20  H5  UNL     1      50.084   2.455 104.919  1.00  0.00     0.169 HD
HETATM   21  H9  UNL     1      47.655  -3.072 107.908  1.00  0.00     0.169 HD
HETATM   22  H18 UNL     1      48.823  -0.782 107.752  1.00  0.00     0.145 HD
ENDROOT
BRANCH  16  23
HETATM   23  C15 UNL     1      47.134  -5.275 106.451  1.00  0.00     0.373 C 
BRANCH  23  24
HETATM   24  N3  UNL     1      46.660  -5.246 107.816  1.00  0.00     0.088 N 
HETATM   25  C16 UNL     1      47.582  -6.053 108.627  1.00  0.00     0.310 C 
HETATM   26  C17 UNL     1      45.366  -5.929 107.928  1.00  0.00     0.310 C 
ENDBRANCH  23  24
ENDBRANCH  16  23
TORSDOF 2
ENDMDL
