MODEL 1
REMARK VINA RESULT:      -8.3      0.000      0.000
REMARK  7 active torsions:
REMARK  status: ('A' for Active; 'I' for Inactive)
REMARK    1  A    between atoms: C2_2  and  C5_6 
REMARK    2  A    between atoms: N1_4  and  C7_10 
REMARK    3  A    between atoms: C5_6  and  O2_8 
REMARK    4  A    between atoms: O2_8  and  C6_9 
REMARK    5  A    between atoms: C7_10  and  C8_11 
REMARK    6  A    between atoms: C8_11  and  C9_12 
REMARK    7  A    between atoms: C9_12  and  C10_13 
ROOT
HETATM    1  C1  UNL     1      49.670   1.398 108.226  1.00  0.00     0.008 A 
HETATM    2  C2  UNL     1      49.274   1.019 106.898  1.00  0.00     0.068 A 
HETATM    3  C3  UNL     1      49.602   2.085 106.075  1.00  0.00     0.110 A 
HETATM    4  N1  UNL     1      50.168   3.072 106.831  1.00  0.00    -0.355 N 
HETATM    5  C4  UNL     1      50.225   2.682 108.152  1.00  0.00     0.045 A 
HETATM    6  C11 UNL     1      50.721   3.351 109.285  1.00  0.00     0.030 A 
HETATM    7  C12 UNL     1      50.651   2.705 110.521  1.00  0.00     0.002 A 
HETATM    8  C13 UNL     1      50.102   1.434 110.626  1.00  0.00     0.001 A 
HETATM    9  C14 UNL     1      49.613   0.773 109.495  1.00  0.00     0.015 A 
ENDROOT
BRANCH   2  10
HETATM   10  C5  UNL     1      48.654  -0.209 106.407  1.00  0.00     0.301 C 
HETATM   11  O1  UNL     1      47.577  -0.621 106.826  1.00  0.00    -0.259 OA
BRANCH  10  12
HETATM   12  O2  UNL     1      49.419  -0.837 105.430  1.00  0.00    -0.273 OA
BRANCH  12  13
HETATM   13  C6  UNL     1      48.946  -0.687 104.121  1.00  0.00     0.108 A 
HETATM   14  C15 UNL     1      49.790  -0.137 103.139  1.00  0.00     0.011 A 
HETATM   15  C16 UNL     1      49.296  -0.060 101.820  1.00  0.00    -0.006 A 
HETATM   16  C20 UNL     1      51.091   0.341 103.403  1.00  0.00     0.015 A 
HETATM   17  C17 UNL     1      48.009  -0.550 101.577  1.00  0.00     0.128 A 
HETATM   18  C23 UNL     1      50.098   0.492 100.804  1.00  0.00     0.014 A 
HETATM   19  N2  UNL     1      47.198  -1.102 102.510  1.00  0.00    -0.269 NA
HETATM   20  C18 UNL     1      47.688  -1.157 103.767  1.00  0.00     0.154 A 
HETATM   21  C22 UNL     1      51.381   0.960 101.087  1.00  0.00     0.001 A 
HETATM   22  C21 UNL     1      51.877   0.884 102.385  1.00  0.00     0.001 A 
ENDBRANCH  12  13
ENDBRANCH  10  12
ENDBRANCH   2  10
BRANCH   4  23
HETATM   23  C7  UNL     1      50.625   4.346 106.298  1.00  0.00     0.128 C 
BRANCH  23  24
HETATM   24  C8  UNL     1      51.086   4.230 104.846  1.00  0.00     0.020 C 
BRANCH  24  25
HETATM   25  C9  UNL     1      50.096   4.903 103.895  1.00  0.00     0.001 C 
BRANCH  25  26
HETATM   26  C10 UNL     1      49.788   4.015 102.691  1.00  0.00    -0.004 C 
HETATM   27  C19 UNL     1      48.417   3.370 102.810  1.00  0.00     0.005 C 
ENDBRANCH  25  26
ENDBRANCH  24  25
ENDBRANCH  23  24
ENDBRANCH   4  23
TORSDOF 7
ENDMDL
