MODEL 1
REMARK VINA RESULT:      -8.4      0.000      0.000
REMARK  6 active torsions:
REMARK  status: ('A' for Active; 'I' for Inactive)
REMARK    1  A    between atoms: C4_4  and  N1_10 
REMARK    2  A    between atoms: C5_5  and  O1_7 
REMARK    3  A    between atoms: O1_7  and  C7_8 
REMARK    4  A    between atoms: N1_10  and  N2_11 
REMARK    5  A    between atoms: N4_15  and  C13_19 
REMARK    6  A    between atoms: C15_22  and  C16_24 
ROOT
HETATM    1  N2  UNL     1      50.879   5.250 101.069  1.00  0.00    -0.189 NA
HETATM    2  C9  UNL     1      50.534   4.119 101.601  1.00  0.00     0.167 A 
HETATM    3  C10 UNL     1      50.075   2.829 101.008  1.00  0.00     0.087 A 
HETATM    4  N3  UNL     1      49.834   1.961 101.947  1.00  0.00    -0.165 NA
HETATM    5  N4  UNL     1      50.098   2.578 103.179  1.00  0.00    -0.170 N 
HETATM    6  C11 UNL     1      50.538   3.888 103.088  1.00  0.00     0.302 A 
HETATM    7  O2  UNL     1      50.869   4.728 103.897  1.00  0.00    -0.263 OA
HETATM    8  C12 UNL     1      49.923   2.566  99.556  1.00  0.00     0.075 C 
ENDROOT
BRANCH   1   9
HETATM    9  N1  UNL     1      50.806   5.351  99.716  1.00  0.00    -0.179 NA
HETATM   10  H10 UNL     1      51.598   4.883  99.265  1.00  0.00     0.155 HD
BRANCH   9  11
HETATM   11  C4  UNL     1      50.724   6.661  99.137  1.00  0.00     0.063 A 
HETATM   12  C3  UNL     1      49.516   6.990  98.488  1.00  0.00     0.028 A 
HETATM   13  C2  UNL     1      49.281   8.273  97.983  1.00  0.00     0.002 A 
HETATM   14  C1  UNL     1      50.236   9.269  98.149  1.00  0.00     0.003 A 
HETATM   15  C6  UNL     1      51.424   8.982  98.818  1.00  0.00     0.039 A 
HETATM   16  C5  UNL     1      51.674   7.687  99.299  1.00  0.00     0.091 A 
BRANCH  16  17
HETATM   17  O1  UNL     1      52.839   7.504 100.006  1.00  0.00    -0.350 OA
BRANCH  17  18
HETATM   18  C7  UNL     1      53.506   8.759 100.202  1.00  0.00     0.171 C 
HETATM   19  C8  UNL     1      54.683   8.526 101.132  1.00  0.00     0.034 C 
ENDBRANCH  17  18
ENDBRANCH  16  17
ENDBRANCH   9  11
ENDBRANCH   1   9
BRANCH   5  20
HETATM   20  C13 UNL     1      49.906   1.859 104.348  1.00  0.00     0.198 A 
HETATM   21  S1  UNL     1      49.396   0.225 104.300  1.00  0.00    -0.059 SA
HETATM   22  C14 UNL     1      49.425   0.162 106.011  1.00  0.00     0.086 A 
HETATM   23  C15 UNL     1      49.825   1.379 106.525  1.00  0.00     0.076 A 
HETATM   24  N5  UNL     1      50.092   2.340 105.559  1.00  0.00    -0.222 NA
BRANCH  23  25
HETATM   25  C16 UNL     1      49.964   1.690 107.949  1.00  0.00    -0.007 A 
HETATM   26  C17 UNL     1      50.444   2.953 108.330  1.00  0.00     0.014 A 
HETATM   27  C18 UNL     1      50.592   3.292 109.679  1.00  0.00     0.001 A 
HETATM   28  C19 UNL     1      50.263   2.369 110.668  1.00  0.00     0.000 A 
HETATM   29  C20 UNL     1      49.787   1.111 110.309  1.00  0.00     0.001 A 
HETATM   30  C21 UNL     1      49.640   0.772 108.959  1.00  0.00     0.014 A 
ENDBRANCH  23  25
ENDBRANCH   5  20
TORSDOF 6
ENDMDL
