MODEL 1
REMARK VINA RESULT:      -7.8      0.000      0.000
REMARK  4 active torsions:
REMARK  status: ('A' for Active; 'I' for Inactive)
REMARK    1  A    between atoms: C1_1  and  C7_7 
REMARK    2  A    between atoms: C4_4  and  C11_11 
REMARK    3  A    between atoms: C12_12  and  C13_13 
REMARK       I    between atoms: C13_13  and  N1_14 
REMARK    4  A    between atoms: N1_14  and  C14_15 
ROOT
HETATM    1  C13 UNL     1      50.664   3.784 101.468  1.00  0.00     0.245 C 
HETATM    2  N1  UNL     1      50.497   2.643 100.715  1.00  0.00    -0.324 N 
HETATM    3  O1  UNL     1      50.727   4.941 101.074  1.00  0.00    -0.268 OA
HETATM    4  H16 UNL     1      50.593   1.761 101.201  1.00  0.00     0.169 HD
ENDROOT
BRANCH   1   5
HETATM    5  C12 UNL     1      50.856   3.520 102.919  1.00  0.00     0.075 C 
HETATM    6  C11 UNL     1      49.930   2.926 103.688  1.00  0.00     0.017 C 
BRANCH   6   7
HETATM    7  C4  UNL     1      50.097   2.693 105.129  1.00  0.00    -0.036 A 
HETATM    8  C3  UNL     1      49.696   1.468 105.668  1.00  0.00     0.012 A 
HETATM    9  C2  UNL     1      49.816   1.217 107.041  1.00  0.00     0.009 A 
HETATM   10  C1  UNL     1      50.328   2.185 107.925  1.00  0.00    -0.051 A 
HETATM   11  C6  UNL     1      50.709   3.418 107.372  1.00  0.00     0.009 A 
HETATM   12  C5  UNL     1      50.591   3.669 105.998  1.00  0.00     0.012 A 
BRANCH  10  13
HETATM   13  C7  UNL     1      50.446   1.876 109.428  1.00  0.00    -0.024 C 
HETATM   14  C8  UNL     1      51.928   1.654 109.798  1.00  0.00     0.019 C 
HETATM   15  C9  UNL     1      49.910   3.001 110.342  1.00  0.00     0.019 C 
HETATM   16  C10 UNL     1      49.644   0.599 109.758  1.00  0.00     0.019 C 
ENDBRANCH  10  13
ENDBRANCH   6   7
ENDBRANCH   1   5
BRANCH   2  17
HETATM   17  C14 UNL     1      50.275   2.558  99.324  1.00  0.00     0.037 A 
HETATM   18  C15 UNL     1      51.397   2.681  98.492  1.00  0.00     0.032 A 
HETATM   19  C16 UNL     1      51.268   2.610  97.102  1.00  0.00     0.042 A 
HETATM   20  C17 UNL     1      50.014   2.418  96.534  1.00  0.00     0.102 A 
HETATM   21  C18 UNL     1      48.895   2.266  97.356  1.00  0.00     0.104 A 
HETATM   22  O2  UNL     1      49.956   2.381  95.165  1.00  0.00    -0.346 OA
HETATM   23  C19 UNL     1      49.021   2.350  98.745  1.00  0.00     0.069 A 
HETATM   24  O3  UNL     1      47.632   2.038  96.866  1.00  0.00    -0.346 OA
HETATM   25  C21 UNL     1      47.669   1.632  95.493  1.00  0.00     0.202 C 
HETATM   26  C20 UNL     1      48.609   2.522  94.697  1.00  0.00     0.202 C 
ENDBRANCH   2  17
TORSDOF 4
ENDMDL
