MODEL 1
REMARK VINA RESULT:      -6.8      0.000      0.000
REMARK  2 active torsions:
REMARK  status: ('A' for Active; 'I' for Inactive)
REMARK    1  A    between atoms: C3_3  and  O1_8 
REMARK    2  A    between atoms: C6_6  and  O2_10 
ROOT
HETATM    1  C1  UNL     1      50.106   2.032 105.531  1.00  0.00     0.059 A 
HETATM    2  C2  UNL     1      50.088   2.432 106.846  1.00  0.00     0.047 A 
HETATM    3  C3  UNL     1      49.569   1.601 107.807  1.00  0.00     0.086 A 
HETATM    4  C4  UNL     1      49.067   0.357 107.407  1.00  0.00     0.049 A 
HETATM    5  C5  UNL     1      49.067  -0.076 106.108  1.00  0.00     0.006 A 
HETATM    6  C6  UNL     1      49.606   0.803 105.166  1.00  0.00     0.077 A 
HETATM    7 BR1  UNL     1      50.789   4.148 107.324  1.00  0.00    -0.048 Br
HETATM    8  C9  UNL     1      48.590  -1.364 105.682  1.00  0.00     0.314 A 
HETATM    9  N1  UNL     1      47.995  -2.198 106.655  1.00  0.00     0.096 N 
HETATM   10  C10 UNL     1      47.786  -3.548 106.151  1.00  0.00     0.302 C 
HETATM   11  C11 UNL     1      46.740  -4.277 106.931  1.00  0.00     0.299 C 
HETATM   12  N2  UNL     1      46.536  -3.825 108.256  1.00  0.00     0.086 N 
HETATM   13  C12 UNL     1      46.551  -2.426 108.503  1.00  0.00     0.299 C 
HETATM   14  C13 UNL     1      46.752  -1.701 107.202  1.00  0.00     0.302 C 
HETATM   15 CL1  UNL     1      48.673  -0.011 106.772  1.00  0.00    -0.145 Cl
HETATM   16 CL2  UNL     1      48.671  -0.014 106.773  1.00  0.00    -0.145 Cl
HETATM   17  H15 UNL     1      47.210  -4.283 108.931  1.00  0.00     0.315 HD
HETATM   18  H20 UNL     1      48.021  -1.227 106.689  1.00  0.00     0.145 HD
HETATM   19  H21 UNL     1      48.023  -1.223 106.689  1.00  0.00     0.145 HD
ENDROOT
BRANCH   6  20
HETATM   20  O2  UNL     1      49.628   0.412 103.848  1.00  0.00    -0.355 OA
HETATM   21  C8  UNL     1      50.777   0.402 103.057  1.00  0.00     0.210 C 
ENDBRANCH   6  20
BRANCH   3  22
HETATM   22  O1  UNL     1      49.543   1.992 109.143  1.00  0.00    -0.355 OA
HETATM   23  C7  UNL     1      49.765   1.123 110.209  1.00  0.00     0.210 C 
ENDBRANCH   3  22
TORSDOF 2
ENDMDL
