MODEL 1
REMARK VINA RESULT:      -7.7      0.000      0.000
REMARK  8 active torsions:
REMARK  status: ('A' for Active; 'I' for Inactive)
REMARK    1  A    between atoms: C1_1  and  C13_17 
REMARK    2  A    between atoms: C4_5  and  C5_6 
REMARK    3  A    between atoms: C5_6  and  C6_7 
REMARK    4  A    between atoms: C8_9  and  O2_13 
REMARK    5  A    between atoms: C9_10  and  O3_15 
REMARK    6  A    between atoms: C13_17  and  C14_18 
REMARK    7  A    between atoms: C16_20  and  O5_24 
REMARK    8  A    between atoms: C17_21  and  O6_26 
ROOT
HETATM    1  C1  UNL     1      49.722   2.078 108.444  1.00  0.00     0.028 C 
HETATM    2  C2  UNL     1      49.667   2.629 109.854  1.00  0.00     0.184 C 
HETATM    3  O1  UNL     1      51.016   2.911 110.214  1.00  0.00    -0.321 OA
HETATM    4  C3  UNL     1      51.756   3.099 109.083  1.00  0.00     0.263 C 
HETATM    5  C4  UNL     1      50.932   2.809 107.855  1.00  0.00     0.096 C 
HETATM    6  O4  UNL     1      52.917   3.475 109.089  1.00  0.00    -0.265 OA
ENDROOT
BRANCH   1   7
HETATM    7  C13 UNL     1      49.909   0.545 108.455  1.00  0.00     0.046 C 
BRANCH   7   8
HETATM    8  C14 UNL     1      49.045  -0.147 107.425  1.00  0.00    -0.055 A 
HETATM    9  C15 UNL     1      49.099   0.230 106.074  1.00  0.00     0.046 A 
HETATM   10  C16 UNL     1      48.347  -0.450 105.108  1.00  0.00     0.102 A 
HETATM   11  C17 UNL     1      47.519  -1.521 105.496  1.00  0.00     0.101 A 
HETATM   12  C18 UNL     1      47.445  -1.880 106.844  1.00  0.00     0.040 A 
HETATM   13  C19 UNL     1      48.201  -1.197 107.801  1.00  0.00     0.010 A 
BRANCH  10  14
HETATM   14  O5  UNL     1      48.370  -0.162 103.765  1.00  0.00    -0.353 OA
HETATM   15  C20 UNL     1      48.015   1.152 103.367  1.00  0.00     0.210 C 
ENDBRANCH  10  14
BRANCH  11  16
HETATM   16  O6  UNL     1      46.830  -2.149 104.488  1.00  0.00    -0.353 OA
HETATM   17  C21 UNL     1      46.881  -3.568 104.441  1.00  0.00     0.210 C 
ENDBRANCH  11  16
ENDBRANCH   7   8
ENDBRANCH   1   7
BRANCH   5  18
HETATM   18  C5  UNL     1      50.558   4.121 107.156  1.00  0.00     0.053 C 
BRANCH  18  19
HETATM   19  C6  UNL     1      50.576   3.960 105.653  1.00  0.00    -0.054 A 
HETATM   20  C7  UNL     1      51.402   2.984 105.061  1.00  0.00     0.046 A 
HETATM   21  C8  UNL     1      51.456   2.839 103.672  1.00  0.00     0.101 A 
HETATM   22  C9  UNL     1      50.666   3.681 102.877  1.00  0.00     0.099 A 
HETATM   23  C10 UNL     1      49.853   4.659 103.449  1.00  0.00     0.040 A 
HETATM   24  C11 UNL     1      49.814   4.801 104.837  1.00  0.00     0.010 A 
BRANCH  21  25
HETATM   25  O2  UNL     1      52.225   1.918 103.009  1.00  0.00    -0.353 OA
HETATM   26  C12 UNL     1      51.771   0.571 103.018  1.00  0.00     0.210 C 
ENDBRANCH  21  25
BRANCH  22  27
HETATM   27  O3  UNL     1      50.706   3.546 101.515  1.00  0.00    -0.358 OA
HETATM   28  H13 UNL     1      50.471   4.393 101.107  1.00  0.00     0.217 HD
ENDBRANCH  22  27
ENDBRANCH  18  19
ENDBRANCH   5  18
TORSDOF 8
ENDMDL
