MODEL 1
REMARK VINA RESULT:      -8.3      0.000      0.000
REMARK  5 active torsions:
REMARK  status: ('A' for Active; 'I' for Inactive)
REMARK    1  A    between atoms: C2_2  and  O1_25 
REMARK    2  A    between atoms: C17_17  and  C18_18 
REMARK    3  A    between atoms: C18_18  and  C19_19 
REMARK    4  A    between atoms: C19_19  and  C20_20 
REMARK    5  A    between atoms: C20_20  and  C21_21 
ROOT
HETATM    1  C1  UNL     1      47.439  -4.919 100.331  1.00  0.00     0.033 C 
HETATM    2  C2  UNL     1      46.891  -5.911 101.352  1.00  0.00     0.122 C 
HETATM    3  C3  UNL     1      45.998  -5.208 102.375  1.00  0.00     0.066 C 
HETATM    4  C4  UNL     1      46.691  -4.032 103.027  1.00  0.00    -0.072 C 
HETATM    5  C5  UNL     1      47.359  -3.013 102.091  1.00  0.00    -0.017 C 
HETATM    6  C6  UNL     1      48.189  -3.776 101.016  1.00  0.00     0.016 C 
HETATM    7  C7  UNL     1      46.711  -3.916 104.366  1.00  0.00    -0.023 C 
HETATM    8  C8  UNL     1      47.344  -2.785 105.115  1.00  0.00     0.033 C 
HETATM    9  C9  UNL     1      47.703  -1.582 104.227  1.00  0.00    -0.001 C 
HETATM   10  C10 UNL     1      48.339  -2.069 102.896  1.00  0.00     0.003 C 
HETATM   11  C11 UNL     1      48.681  -0.647 104.949  1.00  0.00    -0.001 C 
HETATM   12  C12 UNL     1      49.088   0.599 104.125  1.00  0.00    -0.036 C 
HETATM   13  C13 UNL     1      49.806   0.066 102.870  1.00  0.00     0.010 C 
HETATM   14  C14 UNL     1      48.920  -0.898 102.062  1.00  0.00     0.007 C 
HETATM   15  C15 UNL     1      48.260  -0.079 106.294  1.00  0.00     0.006 C 
HETATM   16  C16 UNL     1      49.219   1.097 106.510  1.00  0.00     0.006 C 
HETATM   17  C17 UNL     1      49.993   1.319 105.174  1.00  0.00    -0.002 C 
HETATM   18  C25 UNL     1      46.241  -2.200 101.394  1.00  0.00     0.020 C 
HETATM   19  C26 UNL     1      47.888   1.491 103.725  1.00  0.00     0.016 C 
ENDROOT
BRANCH  17  20
HETATM   20  C18 UNL     1      50.383   2.814 104.970  1.00  0.00    -0.014 C 
HETATM   21  C24 UNL     1      51.851   2.981 104.565  1.00  0.00     0.010 C 
BRANCH  20  22
HETATM   22  C19 UNL     1      50.088   3.621 106.265  1.00  0.00     0.008 C 
BRANCH  22  23
HETATM   23  C20 UNL     1      51.258   3.679 107.253  1.00  0.00     0.028 C 
BRANCH  23  24
HETATM   24  C21 UNL     1      50.757   3.651 108.673  1.00  0.00    -0.025 C 
HETATM   25  C22 UNL     1      50.878   2.661 109.579  1.00  0.00    -0.091 C 
HETATM   26  C23 UNL     1      50.299   2.818 110.963  1.00  0.00     0.042 C 
HETATM   27  C27 UNL     1      51.579   1.351 109.352  1.00  0.00     0.042 C 
ENDBRANCH  23  24
ENDBRANCH  22  23
ENDBRANCH  20  22
ENDBRANCH  17  20
BRANCH   2  28
HETATM   28  O1  UNL     1      46.147  -6.907 100.654  1.00  0.00    -0.395 OA
HETATM   29  H35 UNL     1      46.426  -6.880  99.723  1.00  0.00     0.210 HD
ENDBRANCH   2  28
TORSDOF 5
ENDMDL
