MODEL 1
REMARK VINA RESULT:      -8.9      0.000      0.000
REMARK  6 active torsions:
REMARK  status: ('A' for Active; 'I' for Inactive)
REMARK    1  A    between atoms: C1_1  and  C2_2 
REMARK    2  A    between atoms: C1_1  and  C3_4 
REMARK    3  A    between atoms: N1_10  and  C19_22 
REMARK    4  A    between atoms: C19_22  and  C20_23 
REMARK    5  A    between atoms: C20_23  and  C21_24 
REMARK    6  A    between atoms: C21_24  and  C22_25 
ROOT
HETATM    1  C2  UNL     1      48.577   0.335 104.840  1.00  0.00     0.182 A 
HETATM    2  N1  UNL     1      47.231   0.041 104.943  1.00  0.00    -0.326 N 
HETATM    3  C9  UNL     1      46.668   0.129 103.689  1.00  0.00     0.065 A 
HETATM    4  C10 UNL     1      47.725   0.509 102.868  1.00  0.00     0.086 A 
HETATM    5  N2  UNL     1      48.883   0.634 103.587  1.00  0.00    -0.225 NA
HETATM    6  C11 UNL     1      45.372  -0.081 103.197  1.00  0.00     0.032 A 
HETATM    7  C12 UNL     1      45.169   0.116 101.827  1.00  0.00     0.002 A 
HETATM    8  C13 UNL     1      46.215   0.503 100.987  1.00  0.00     0.002 A 
HETATM    9  C14 UNL     1      47.503   0.702 101.497  1.00  0.00     0.034 A 
ENDROOT
BRANCH   1  10
HETATM   10  C1  UNL     1      49.555   0.326 105.921  1.00  0.00     0.228 C 
HETATM   11  O1  UNL     1      50.111  -0.690 106.336  1.00  0.00    -0.283 OA
BRANCH  10  12
HETATM   12  C3  UNL     1      49.920   1.621 106.558  1.00  0.00     0.029 A 
HETATM   13  C4  UNL     1      49.966   1.755 107.972  1.00  0.00    -0.012 A 
HETATM   14  C5  UNL     1      50.355   3.009 108.506  1.00  0.00    -0.025 A 
HETATM   15  C15 UNL     1      49.640   0.724 108.887  1.00  0.00     0.013 A 
HETATM   16  C6  UNL     1      50.684   4.069 107.644  1.00  0.00     0.012 A 
HETATM   17  C18 UNL     1      50.408   3.193 109.898  1.00  0.00     0.012 A 
HETATM   18  C7  UNL     1      50.637   3.914 106.260  1.00  0.00     0.002 A 
HETATM   19  C8  UNL     1      50.259   2.692 105.716  1.00  0.00     0.016 A 
HETATM   20  C17 UNL     1      50.082   2.158 110.773  1.00  0.00     0.001 A 
HETATM   21  C16 UNL     1      49.697   0.923 110.267  1.00  0.00     0.001 A 
ENDBRANCH  10  12
ENDBRANCH   1  10
BRANCH   2  22
HETATM   22  C19 UNL     1      46.507  -0.297 106.158  1.00  0.00     0.131 C 
BRANCH  22  23
HETATM   23  C20 UNL     1      46.713  -1.756 106.566  1.00  0.00     0.020 C 
BRANCH  23  24
HETATM   24  C21 UNL     1      47.235  -1.915 107.995  1.00  0.00     0.001 C 
BRANCH  24  25
HETATM   25  C22 UNL     1      47.471  -3.371 108.396  1.00  0.00    -0.004 C 
HETATM   26  C23 UNL     1      48.248  -4.122 107.326  1.00  0.00     0.005 C 
ENDBRANCH  24  25
ENDBRANCH  23  24
ENDBRANCH  22  23
ENDBRANCH   2  22
TORSDOF 6
ENDMDL
