MODEL 1
REMARK VINA RESULT:      -6.9      0.000      0.000
REMARK  8 active torsions:
REMARK  status: ('A' for Active; 'I' for Inactive)
REMARK    1  A    between atoms: C1_1  and  O1_7 
REMARK    2  A    between atoms: C2_2  and  O2_10 
REMARK    3  A    between atoms: C4_4  and  C11_13 
REMARK    4  A    between atoms: O1_7  and  C7_8 
REMARK    5  A    between atoms: O2_10  and  C9_11 
REMARK    6  A    between atoms: C11_13  and  C12_14 
REMARK    7  A    between atoms: C12_14  and  N1_15 
REMARK       I    between atoms: N1_15  and  C13_16 
REMARK    8  A    between atoms: C13_16  and  C14_17 
ROOT
HETATM    1  C12 UNL     1      51.696   3.009 104.042  1.00  0.00     0.127 C 
ENDROOT
BRANCH   1   2
HETATM    2  C11 UNL     1      50.642   3.451 105.061  1.00  0.00     0.058 C 
BRANCH   2   3
HETATM    3  C4  UNL     1      50.109   2.284 105.854  1.00  0.00    -0.054 A 
HETATM    4  C3  UNL     1      50.110   2.310 107.256  1.00  0.00     0.046 A 
HETATM    5  C2  UNL     1      49.598   1.234 107.993  1.00  0.00     0.102 A 
HETATM    6  C1  UNL     1      49.059   0.121 107.319  1.00  0.00     0.102 A 
HETATM    7  C6  UNL     1      49.067   0.093 105.922  1.00  0.00     0.040 A 
HETATM    8  C5  UNL     1      49.583   1.168 105.195  1.00  0.00     0.010 A 
BRANCH   5   9
HETATM    9  O2  UNL     1      49.561   1.182 109.365  1.00  0.00    -0.349 OA
BRANCH   9  10
HETATM   10  C9  UNL     1      50.729   1.579 110.078  1.00  0.00     0.171 C 
HETATM   11  C10 UNL     1      50.355   2.746 110.974  1.00  0.00     0.034 C 
ENDBRANCH   9  10
ENDBRANCH   5   9
BRANCH   6  12
HETATM   12  O1  UNL     1      48.586  -0.895 108.112  1.00  0.00    -0.349 OA
BRANCH  12  13
HETATM   13  C7  UNL     1      47.920  -1.995 107.501  1.00  0.00     0.171 C 
HETATM   14  C8  UNL     1      46.794  -2.493 108.392  1.00  0.00     0.034 C 
ENDBRANCH  12  13
ENDBRANCH   6  12
ENDBRANCH   2   3
ENDBRANCH   1   2
BRANCH   1  15
HETATM   15  N1  UNL     1      51.183   3.013 102.685  1.00  0.00    -0.355 N 
HETATM   16  C13 UNL     1      51.274   1.904 101.873  1.00  0.00     0.268 C 
HETATM   17  O3  UNL     1      51.773   0.856 102.274  1.00  0.00    -0.266 OA
HETATM   18  H18 UNL     1      50.883   3.891 102.290  1.00  0.00     0.162 HD
BRANCH  16  19
HETATM   19  C14 UNL     1      50.765   2.085 100.517  1.00  0.00     0.104 A 
HETATM   20  C15 UNL     1      49.486   1.847 100.022  1.00  0.00     0.056 A 
HETATM   21  C16 UNL     1      49.512   2.175  98.639  1.00  0.00     0.035 A 
HETATM   22  C17 UNL     1      50.771   2.587  98.320  1.00  0.00     0.054 A 
HETATM   23  S1  UNL     1      48.440   2.198  97.278  1.00  0.00    -0.076 SA
HETATM   24  N2  UNL     1      51.543   2.531  99.459  1.00  0.00    -0.346 N 
HETATM   25  C19 UNL     1      50.916   2.940  96.947  1.00  0.00     0.062 A 
HETATM   26  C20 UNL     1      52.940   2.896  99.499  1.00  0.00     0.156 C 
HETATM   27  C18 UNL     1      49.715   2.764  96.309  1.00  0.00     0.077 A 
HETATM   28 CL1  UNL     1      49.415   3.067  94.640  1.00  0.00    -0.076 Cl
ENDBRANCH  16  19
ENDBRANCH   1  15
TORSDOF 8
ENDMDL
