MODEL 1
REMARK VINA RESULT:      -9.1      0.000      0.000
REMARK  4 active torsions:
REMARK  status: ('A' for Active; 'I' for Inactive)
REMARK    1  A    between atoms: C1_1  and  N1_10 
REMARK    2  A    between atoms: C4_4  and  C7_7 
REMARK    3  A    between atoms: C7_7  and  O1_8 
REMARK       I    between atoms: N1_10  and  C8_11 
REMARK    4  A    between atoms: C8_11  and  C9_12 
ROOT
HETATM    1  C9  UNL     1      50.229   3.132 104.862  1.00  0.00     0.032 A 
HETATM    2  C10 UNL     1      49.688   1.936 105.345  1.00  0.00     0.025 A 
HETATM    3  C11 UNL     1      49.767   1.579 106.711  1.00  0.00    -0.042 A 
HETATM    4  C12 UNL     1      50.443   2.451 107.599  1.00  0.00    -0.043 A 
HETATM    5  C13 UNL     1      50.948   3.673 107.096  1.00  0.00     0.009 A 
HETATM    6  C14 UNL     1      50.841   4.014 105.747  1.00  0.00     0.017 A 
HETATM    7  C15 UNL     1      49.152   0.249 107.170  1.00  0.00    -0.020 C 
HETATM    8  C16 UNL     1      49.034   0.178 108.708  1.00  0.00     0.015 C 
HETATM    9  C17 UNL     1      50.300   0.654 109.400  1.00  0.00     0.015 C 
HETATM   10  C18 UNL     1      50.602   2.138 109.094  1.00  0.00    -0.020 C 
HETATM   11  C19 UNL     1      50.038  -0.908 106.656  1.00  0.00     0.020 C 
HETATM   12  C20 UNL     1      47.723   0.053 106.612  1.00  0.00     0.020 C 
HETATM   13  C21 UNL     1      52.046   2.401 109.586  1.00  0.00     0.020 C 
HETATM   14  C22 UNL     1      49.643   3.046 109.895  1.00  0.00     0.020 C 
ENDROOT
BRANCH   1  15
HETATM   15  C8  UNL     1      50.103   3.439 103.410  1.00  0.00     0.256 C 
HETATM   16  N1  UNL     1      50.631   2.478 102.567  1.00  0.00    -0.323 N 
HETATM   17  H6  UNL     1      50.949   1.619 102.997  1.00  0.00     0.169 HD
HETATM   18  O3  UNL     1      49.529   4.471 103.079  1.00  0.00    -0.267 OA
BRANCH  16  19
HETATM   19  C1  UNL     1      50.692   2.513 101.158  1.00  0.00     0.035 A 
HETATM   20  C2  UNL     1      49.569   2.493 100.328  1.00  0.00     0.030 A 
HETATM   21  C3  UNL     1      49.710   2.537  98.935  1.00  0.00     0.020 A 
HETATM   22  C4  UNL     1      50.980   2.607  98.357  1.00  0.00     0.037 A 
HETATM   23  C5  UNL     1      52.108   2.631  99.182  1.00  0.00     0.020 A 
HETATM   24  C6  UNL     1      51.962   2.587 100.573  1.00  0.00     0.030 A 
BRANCH  22  25
HETATM   25  C7  UNL     1      51.181   2.656  96.888  1.00  0.00     0.176 C 
HETATM   26  O2  UNL     1      51.804   1.844  96.229  1.00  0.00    -0.646 OA
BRANCH  25  27
HETATM   27  O1  UNL     1      50.594   3.720  96.315  1.00  0.00    -0.773 OA
HETATM   28  H5  UNL     1      49.875   3.330  95.773  1.00  0.00     0.167 HD
ENDBRANCH  25  27
ENDBRANCH  22  25
ENDBRANCH  16  19
ENDBRANCH   1  15
TORSDOF 4
ENDMDL
