MODEL 1
REMARK VINA RESULT:      -8.0      0.000      0.000
REMARK  7 active torsions:
REMARK  status: ('A' for Active; 'I' for Inactive)
REMARK    1  A    between atoms: C2_2  and  O1_7 
REMARK    2  A    between atoms: C5_5  and  N2_10 
REMARK    3  A    between atoms: C6_6  and  N1_9 
REMARK    4  A    between atoms: N3_11  and  C8_12 
REMARK    5  A    between atoms: C11_15  and  S1_18 
REMARK    6  A    between atoms: S1_18  and  N4_19 
REMARK    7  A    between atoms: N4_19  and  C14_22 
ROOT
HETATM    1  C8  UNL     1      50.889   2.694 103.497  1.00  0.00     0.079 A 
HETATM    2  C9  UNL     1      50.169   3.832 103.097  1.00  0.00     0.035 A 
HETATM    3  C10 UNL     1      50.289   4.339 101.801  1.00  0.00     0.027 A 
HETATM    4  C11 UNL     1      51.153   3.716 100.896  1.00  0.00     0.075 A 
HETATM    5  C12 UNL     1      51.876   2.582 101.271  1.00  0.00     0.027 A 
HETATM    6  C13 UNL     1      51.747   2.085 102.570  1.00  0.00     0.035 A 
ENDROOT
BRANCH   1   7
HETATM    7  N3  UNL     1      50.824   2.147 104.795  1.00  0.00    -0.150 NA
HETATM    8  N2  UNL     1      50.009   2.752 105.526  1.00  0.00    -0.148 NA
BRANCH   8   9
HETATM    9  C5  UNL     1      49.936   2.128 106.789  1.00  0.00     0.100 A 
HETATM   10  C4  UNL     1      50.325   2.836 107.937  1.00  0.00     0.045 A 
HETATM   11  C3  UNL     1      50.294   2.236 109.204  1.00  0.00    -0.026 A 
HETATM   12  C2  UNL     1      49.852   0.917 109.303  1.00  0.00     0.073 A 
HETATM   13  C7  UNL     1      50.707   3.009 110.421  1.00  0.00     0.051 C 
HETATM   14  C1  UNL     1      49.474   0.191 108.170  1.00  0.00     0.062 A 
HETATM   15  C6  UNL     1      49.557   0.772 106.898  1.00  0.00     0.039 A 
BRANCH  12  16
HETATM   16  O1  UNL     1      49.789   0.340 110.541  1.00  0.00    -0.360 OA
HETATM   17  H3  UNL     1      50.580  -0.206 110.674  1.00  0.00     0.217 HD
ENDBRANCH  12  16
BRANCH  15  18
HETATM   18  N1  UNL     1      49.067   0.057 105.785  1.00  0.00    -0.301 NA
HETATM   19  H7  UNL     1      48.157  -0.365 105.931  1.00  0.00     0.124 HD
HETATM   20  H8  UNL     1      49.759  -0.596 105.421  1.00  0.00     0.124 HD
ENDBRANCH  15  18
ENDBRANCH   8   9
ENDBRANCH   1   7
BRANCH   4  21
HETATM   21  S1  UNL     1      51.288   4.352  99.238  1.00  0.00     0.247 S 
HETATM   22  O2  UNL     1      51.651   3.254  98.365  1.00  0.00    -0.205 OA
HETATM   23  O3  UNL     1      50.097   5.136  98.987  1.00  0.00    -0.205 OA
BRANCH  21  24
HETATM   24  N4  UNL     1      52.569   5.436  99.333  1.00  0.00    -0.165 NA
HETATM   25  H13 UNL     1      53.347   5.134  98.753  1.00  0.00     0.147 HD
BRANCH  24  26
HETATM   26  C14 UNL     1      52.265   6.787  99.087  1.00  0.00     0.116 A 
HETATM   27  C15 UNL     1      52.324   7.359  97.828  1.00  0.00     0.045 A 
HETATM   28  C16 UNL     1      52.022   8.711  97.716  1.00  0.00     0.005 A 
HETATM   29  C17 UNL     1      51.681   9.429  98.858  1.00  0.00     0.019 A 
HETATM   30  C18 UNL     1      51.653   8.758 100.071  1.00  0.00     0.118 A 
HETATM   31  N5  UNL     1      51.936   7.445 100.212  1.00  0.00    -0.248 NA
ENDBRANCH  24  26
ENDBRANCH  21  24
ENDBRANCH   4  21
TORSDOF 7
ENDMDL
