MODEL 1
REMARK VINA RESULT:      -8.0      0.000      0.000
REMARK  10 active torsions:
REMARK  status: ('A' for Active; 'I' for Inactive)
REMARK       I    between atoms: N1_2  and  C8_9 
REMARK    1  A    between atoms: C2_3  and  C21_26 
REMARK    2  A    between atoms: C8_9  and  C9_10 
REMARK    3  A    between atoms: C9_10  and  N2_12 
REMARK    4  A    between atoms: N2_12  and  C10_13 
REMARK    5  A    between atoms: C10_13  and  C11_14 
REMARK    6  A    between atoms: C10_13  and  C12_15 
REMARK    7  A    between atoms: C11_14  and  C13_18 
REMARK    8  A    between atoms: C12_15  and  O3_17 
REMARK    9  A    between atoms: C13_18  and  C14_19 
REMARK   10  A    between atoms: C21_26  and  O4_27 
ROOT
HETATM    1  C9  UNL     1      51.022   2.041 103.521  1.00  0.00     0.308 C 
HETATM    2  C20 UNL     1      52.246   1.367 102.901  1.00  0.00     0.053 C 
ENDROOT
BRANCH   1   3
HETATM    3  C8  UNL     1      49.965   0.983 103.953  1.00  0.00     0.254 C 
HETATM    4  N1  UNL     1      48.820   0.843 103.187  1.00  0.00    -0.331 N 
HETATM    5  C1  UNL     1      47.901  -0.244 103.454  1.00  0.00     0.092 C 
HETATM    6  C2  UNL     1      48.544   1.480 101.889  1.00  0.00     0.186 C 
HETATM    7  C4  UNL     1      47.200  -0.528 102.127  1.00  0.00     0.011 C 
HETATM    8  C7  UNL     1      46.770   0.115 104.410  1.00  0.00     0.026 C 
HETATM    9  C3  UNL     1      47.256   0.811 101.390  1.00  0.00     0.043 C 
HETATM   10  C5  UNL     1      45.785  -0.987 102.488  1.00  0.00     0.007 C 
HETATM   11  C6  UNL     1      45.673  -0.860 104.009  1.00  0.00     0.002 C 
HETATM   12  O1  UNL     1      50.146   0.292 104.961  1.00  0.00    -0.271 OA
BRANCH   6  13
HETATM   13  C21 UNL     1      48.300   2.985 101.965  1.00  0.00     0.163 C 
HETATM   14  O5  UNL     1      47.528   3.536 102.736  1.00  0.00    -0.648 OA
BRANCH  13  15
HETATM   15  O4  UNL     1      49.079   3.700 101.129  1.00  0.00    -0.775 OA
HETATM   16  H28 UNL     1      49.269   3.088 100.382  1.00  0.00     0.167 HD
ENDBRANCH  13  15
ENDBRANCH   6  13
ENDBRANCH   1   3
BRANCH   1  17
HETATM   17  N2  UNL     1      51.351   2.961 104.633  1.00  0.00     0.111 N 
HETATM   18  H13 UNL     1      51.602   2.427 105.464  1.00  0.00     0.318 HD
BRANCH  17  19
HETATM   19  C10 UNL     1      50.290   3.945 104.982  1.00  0.00     0.318 C 
BRANCH  19  20
HETATM   20  C11 UNL     1      50.257   4.195 106.501  1.00  0.00     0.051 C 
BRANCH  20  21
HETATM   21  C13 UNL     1      51.312   3.376 107.254  1.00  0.00     0.041 C 
BRANCH  21  22
HETATM   22  C14 UNL     1      50.711   2.683 108.453  1.00  0.00    -0.058 A 
HETATM   23  C15 UNL     1      50.119   1.421 108.320  1.00  0.00     0.007 A 
HETATM   24  C16 UNL     1      49.582   0.772 109.434  1.00  0.00     0.001 A 
HETATM   25  C17 UNL     1      49.637   1.375 110.688  1.00  0.00     0.000 A 
HETATM   26  C18 UNL     1      50.227   2.629 110.830  1.00  0.00     0.001 A 
HETATM   27  C19 UNL     1      50.764   3.281 109.719  1.00  0.00     0.007 A 
ENDBRANCH  21  22
ENDBRANCH  20  21
ENDBRANCH  19  20
BRANCH  19  28
HETATM   28  C12 UNL     1      50.558   5.290 104.279  1.00  0.00     0.174 C 
HETATM   29  O2  UNL     1      50.524   5.479 103.072  1.00  0.00    -0.648 OA
BRANCH  28  30
HETATM   30  O3  UNL     1      50.754   6.350 105.099  1.00  0.00    -0.775 OA
HETATM   31  H17 UNL     1      51.730   6.353 105.194  1.00  0.00     0.167 HD
ENDBRANCH  28  30
ENDBRANCH  19  28
ENDBRANCH  17  19
ENDBRANCH   1  17
TORSDOF 10
ENDMDL
