MODEL 1
REMARK VINA RESULT:      -9.5      0.000      0.000
REMARK  6 active torsions:
REMARK  status: ('A' for Active; 'I' for Inactive)
REMARK    1  A    between atoms: C2_2  and  C11_14 
REMARK    2  A    between atoms: C3_4  and  N3_20 
REMARK       I    between atoms: N3_20  and  C17_21 
REMARK    3  A    between atoms: C17_21  and  C18_22 
REMARK    4  A    between atoms: C18_22  and  N4_24 
REMARK       I    between atoms: N4_24  and  C19_25 
REMARK    5  A    between atoms: C19_25  and  C20_26 
REMARK    6  A    between atoms: C20_26  and  C21_28 
ROOT
HETATM    1  C1  UNL     1      47.620  -2.916 102.914  1.00  0.00     0.020 A 
HETATM    2  C2  UNL     1      47.652  -2.338 104.292  1.00  0.00     0.076 C 
HETATM    3  N1  UNL     1      47.879  -1.093 104.552  1.00  0.00    -0.253 NA
HETATM    4  C3  UNL     1      48.064  -0.203 103.419  1.00  0.00     0.302 C 
HETATM    5  C4  UNL     1      46.673  -0.008 102.745  1.00  0.00     0.268 C 
HETATM    6  N2  UNL     1      46.184  -1.089 101.996  1.00  0.00    -0.318 N 
HETATM    7  C5  UNL     1      46.870  -2.339 101.870  1.00  0.00     0.049 A 
HETATM    8  O1  UNL     1      46.049   1.055 102.848  1.00  0.00    -0.269 OA
HETATM    9  C6  UNL     1      44.999  -0.844 101.187  1.00  0.00     0.159 C 
HETATM   10  C7  UNL     1      46.799  -3.041 100.653  1.00  0.00     0.031 A 
HETATM   11  C8  UNL     1      47.492  -4.241 100.458  1.00  0.00     0.002 A 
HETATM   12  C9  UNL     1      48.269  -4.770 101.481  1.00  0.00     0.001 A 
HETATM   13  C10 UNL     1      48.334  -4.111 102.706  1.00  0.00     0.016 A 
ENDROOT
BRANCH   4  14
HETATM   14  N3  UNL     1      48.516   1.042 103.980  1.00  0.00    -0.329 N 
HETATM   15  C17 UNL     1      49.444   1.807 103.321  1.00  0.00     0.242 C 
HETATM   16  O2  UNL     1      50.059   1.412 102.328  1.00  0.00    -0.271 OA
HETATM   17  H14 UNL     1      47.861   1.477 104.613  1.00  0.00     0.165 HD
BRANCH  15  18
HETATM   18  C18 UNL     1      49.625   3.229 103.889  1.00  0.00     0.172 C 
HETATM   19  C27 UNL     1      50.072   4.177 102.785  1.00  0.00     0.042 C 
BRANCH  18  20
HETATM   20  N4  UNL     1      50.635   3.163 104.944  1.00  0.00    -0.348 N 
HETATM   21  C19 UNL     1      50.550   4.014 106.031  1.00  0.00     0.222 C 
HETATM   22  O3  UNL     1      49.800   4.984 106.063  1.00  0.00    -0.273 OA
HETATM   23  H16 UNL     1      50.962   2.225 105.145  1.00  0.00     0.163 HD
BRANCH  21  24
HETATM   24  C20 UNL     1      51.476   3.614 107.170  1.00  0.00     0.141 C 
BRANCH  24  25
HETATM   25  C21 UNL     1      50.804   2.807 108.255  1.00  0.00    -0.044 A 
HETATM   26  C22 UNL     1      50.249   1.552 107.972  1.00  0.00     0.050 A 
HETATM   27  C23 UNL     1      49.650   0.808 108.987  1.00  0.00     0.119 A 
HETATM   28  C24 UNL     1      49.591   1.284 110.289  1.00  0.00     0.084 A 
HETATM   29  F2  UNL     1      49.117  -0.387 108.698  1.00  0.00    -0.206 F 
HETATM   30  C25 UNL     1      50.151   2.522 110.570  1.00  0.00     0.119 A 
HETATM   31  C26 UNL     1      50.757   3.285 109.573  1.00  0.00     0.050 A 
HETATM   32  F1  UNL     1      50.106   2.996 111.824  1.00  0.00    -0.206 F 
ENDBRANCH  24  25
ENDBRANCH  21  24
ENDBRANCH  18  20
ENDBRANCH  15  18
ENDBRANCH   4  14
BRANCH   2  33
HETATM   33  C11 UNL     1      47.414  -3.247 105.458  1.00  0.00    -0.007 A 
HETATM   34  C12 UNL     1      46.263  -4.043 105.535  1.00  0.00     0.014 A 
HETATM   35  C13 UNL     1      46.065  -4.877 106.636  1.00  0.00     0.001 A 
HETATM   36  C14 UNL     1      47.007  -4.912 107.665  1.00  0.00     0.000 A 
HETATM   37  C15 UNL     1      48.144  -4.110 107.601  1.00  0.00     0.001 A 
HETATM   38  C16 UNL     1      48.347  -3.273 106.501  1.00  0.00     0.014 A 
ENDBRANCH   2  33
TORSDOF 6
ENDMDL
