MODEL 1
REMARK VINA RESULT:      -7.6      0.000      0.000
REMARK  4 active torsions:
REMARK  status: ('A' for Active; 'I' for Inactive)
REMARK    1  A    between atoms: C12_13  and  C13_14 
REMARK    2  A    between atoms: C12_13  and  O2_20 
REMARK    3  A    between atoms: C13_14  and  N1_15 
REMARK    4  A    between atoms: N1_15  and  C14_16 
ROOT
HETATM    1  C1  UNL     1      49.692   1.041 105.890  1.00  0.00     0.038 A 
HETATM    2  C2  UNL     1      50.041   2.374 105.825  1.00  0.00     0.010 A 
HETATM    3  C3  UNL     1      50.277   3.100 106.966  1.00  0.00    -0.055 A 
HETATM    4  C4  UNL     1      50.167   2.503 108.201  1.00  0.00    -0.043 A 
HETATM    5  C5  UNL     1      49.822   1.185 108.282  1.00  0.00    -0.018 A 
HETATM    6  C6  UNL     1      49.574   0.421 107.112  1.00  0.00     0.075 A 
HETATM    7  C7  UNL     1      50.371   3.052 109.585  1.00  0.00     0.040 C 
HETATM    8  C8  UNL     1      50.712   1.788 110.371  1.00  0.00     0.009 C 
HETATM    9  C9  UNL     1      49.776   0.789 109.714  1.00  0.00     0.042 C 
HETATM   10  C10 UNL     1      50.656   4.558 106.893  1.00  0.00     0.049 C 
HETATM   11  O1  UNL     1      49.239  -0.887 107.321  1.00  0.00    -0.348 OA
HETATM   12  C11 UNL     1      48.918  -1.879 106.427  1.00  0.00     0.209 A 
HETATM   13  C12 UNL     1      47.663  -1.601 105.689  1.00  0.00     0.175 A 
HETATM   14 CL1  UNL     1      48.669  -1.168 105.543  1.00  0.00    -0.145 Cl
HETATM   15  H28 UNL     1      49.115  -0.197 106.404  1.00  0.00     0.145 HD
ENDROOT
BRANCH  13  16
HETATM   16  C13 UNL     1      47.243  -2.781 104.774  1.00  0.00     0.247 C 
HETATM   17  C17 UNL     1      46.243  -3.562 105.576  1.00  0.00     0.045 C 
BRANCH  16  18
HETATM   18  N1  UNL     1      46.784  -2.230 103.557  1.00  0.00     0.094 N 
HETATM   19  H16 UNL     1      47.096  -2.906 102.791  1.00  0.00     0.316 HD
BRANCH  18  20
HETATM   20  C14 UNL     1      45.389  -2.074 103.352  1.00  0.00     0.213 C 
HETATM   21  C15 UNL     1      44.777  -2.848 102.226  1.00  0.00     0.042 C 
HETATM   22  C16 UNL     1      44.953  -0.616 103.322  1.00  0.00     0.042 C 
ENDBRANCH  18  20
ENDBRANCH  16  18
ENDBRANCH  13  16
BRANCH  13  23
HETATM   23  O2  UNL     1      46.590  -1.451 106.609  1.00  0.00    -0.391 OA
HETATM   24  H27 UNL     1      46.863  -1.032 107.438  1.00  0.00     0.210 HD
ENDBRANCH  13  23
TORSDOF 4
ENDMDL
