MODEL 1
REMARK VINA RESULT:      -9.3      0.000      0.000
REMARK  4 active torsions:
REMARK  status: ('A' for Active; 'I' for Inactive)
REMARK    1  A    between atoms: C8_10  and  C21_27 
REMARK    2  A    between atoms: C8_10  and  O5_29 
REMARK    3  A    between atoms: C14_19  and  C19_24 
REMARK    4  A    between atoms: C17_22  and  O4_26 
ROOT
HETATM    1  C1  UNL     1      49.568   2.234 100.518  1.00  0.00     0.044 A 
HETATM    2  C2  UNL     1      50.156   3.311 101.072  1.00  0.00     0.002 A 
HETATM    3  C3  UNL     1      50.323   3.384 102.519  1.00  0.00     0.043 A 
HETATM    4  C4  UNL     1      49.908   2.364 103.274  1.00  0.00     0.068 A 
HETATM    5  N1  UNL     1      49.322   1.249 102.711  1.00  0.00    -0.307 N 
HETATM    6  C5  UNL     1      49.113   1.086 101.366  1.00  0.00     0.257 A 
HETATM    7  C6  UNL     1      49.337   2.112  99.052  1.00  0.00     0.224 C 
HETATM    8  O1  UNL     1      49.344   3.374  98.350  1.00  0.00    -0.314 OA
HETATM    9  C7  UNL     1      49.788   4.520  98.909  1.00  0.00     0.298 C 
HETATM   10  C8  UNL     1      50.652   4.425 100.188  1.00  0.00     0.173 C 
HETATM   11  O2  UNL     1      49.567   5.610  98.379  1.00  0.00    -0.261 OA
HETATM   12  O3  UNL     1      48.605   0.088 100.867  1.00  0.00    -0.267 OA
HETATM   13  C9  UNL     1      49.955   2.173 104.719  1.00  0.00     0.093 A 
HETATM   14  C10 UNL     1      49.391   0.936 105.008  1.00  0.00    -0.002 A 
HETATM   15  C11 UNL     1      48.952   0.269 103.735  1.00  0.00     0.174 A 
HETATM   16  N2  UNL     1      50.453   3.037 105.606  1.00  0.00    -0.245 NA
HETATM   17  C12 UNL     1      50.380   2.656 106.891  1.00  0.00     0.068 A 
HETATM   18  C13 UNL     1      49.819   1.412 107.321  1.00  0.00     0.002 A 
HETATM   19  C14 UNL     1      49.315   0.518 106.330  1.00  0.00    -0.035 A 
HETATM   20  C15 UNL     1      50.879   3.535 107.841  1.00  0.00     0.035 A 
HETATM   21  C16 UNL     1      50.849   3.242 109.204  1.00  0.00     0.039 A 
HETATM   22  C17 UNL     1      50.305   2.043 109.628  1.00  0.00     0.066 A 
HETATM   23  C18 UNL     1      49.794   1.132 108.709  1.00  0.00     0.051 A 
ENDROOT
BRANCH  10  24
HETATM   24  C21 UNL     1      52.119   4.257  99.735  1.00  0.00     0.049 C 
HETATM   25  C22 UNL     1      52.714   2.875  99.976  1.00  0.00     0.009 C 
ENDBRANCH  10  24
BRANCH  10  26
HETATM   26  O5  UNL     1      50.532   5.674 100.886  1.00  0.00    -0.375 OA
HETATM   27  H20 UNL     1      49.917   6.224 100.357  1.00  0.00     0.211 HD
ENDBRANCH  10  26
BRANCH  19  28
HETATM   28  C19 UNL     1      48.689  -0.816 106.656  1.00  0.00     0.036 C 
HETATM   29  C20 UNL     1      47.170  -0.744 106.682  1.00  0.00     0.010 C 
ENDBRANCH  19  28
BRANCH  22  30
HETATM   30  O4  UNL     1      50.289   1.792 110.968  1.00  0.00    -0.361 OA
HETATM   31  H14 UNL     1      50.905   1.069 111.164  1.00  0.00     0.217 HD
ENDBRANCH  22  30
TORSDOF 4
ENDMDL
