MODEL 1
REMARK VINA RESULT:      -9.3      0.000      0.000
REMARK  2 active torsions:
REMARK  status: ('A' for Active; 'I' for Inactive)
REMARK    1  A    between atoms: C16_17  and  C17_18 
REMARK    2  A    between atoms: C17_18  and  N1_19 
ROOT
HETATM    1  C1  UNL     1      50.311   2.873 108.094  1.00  0.00    -0.023 A 
HETATM    2  C2  UNL     1      49.839   1.580 107.983  1.00  0.00    -0.017 A 
HETATM    3  C3  UNL     1      49.409   1.014 106.668  1.00  0.00    -0.016 A 
HETATM    4  C4  UNL     1      50.040   1.351 105.367  1.00  0.00     0.008 A 
HETATM    5  C5  UNL     1      50.392   2.639 104.995  1.00  0.00     0.080 A 
HETATM    6  O1  UNL     1      50.266   3.785 105.809  1.00  0.00    -0.346 OA
HETATM    7  C6  UNL     1      50.574   3.966 107.161  1.00  0.00     0.215 C 
HETATM    8  C7  UNL     1      50.149   0.208 104.638  1.00  0.00     0.015 A 
HETATM    9  C8  UNL     1      50.679   0.405 103.352  1.00  0.00     0.001 A 
HETATM   10  C9  UNL     1      51.049   1.684 102.918  1.00  0.00     0.003 A 
HETATM   11  C10 UNL     1      50.897   2.795 103.760  1.00  0.00     0.037 A 
HETATM   12  C11 UNL     1      50.619   3.243 109.403  1.00  0.00     0.010 A 
HETATM   13  C12 UNL     1      50.455   2.368 110.460  1.00  0.00     0.001 A 
HETATM   14  C13 UNL     1      49.971   1.078 110.240  1.00  0.00     0.001 A 
HETATM   15  C14 UNL     1      49.645   0.653 108.952  1.00  0.00     0.013 A 
HETATM   16  C15 UNL     1      48.441   0.166 106.631  1.00  0.00    -0.012 A 
HETATM   17  C16 UNL     1      47.958  -0.414 105.369  1.00  0.00     0.047 A 
HETATM   18 CL1  UNL     1      48.238   0.438 106.471  1.00  0.00    -0.145 Cl
HETATM   19  H22 UNL     1      49.250   1.352 106.679  1.00  0.00     0.145 HD
ENDROOT
BRANCH  17  20
HETATM   20  C17 UNL     1      46.394  -0.148 105.416  1.00  0.00     0.119 C 
BRANCH  20  21
HETATM   21  N1  UNL     1      45.917   0.102 104.132  1.00  0.00    -0.421 N 
HETATM   22  C18 UNL     1      46.803   0.883 103.319  1.00  0.00     0.142 C 
HETATM   23  C19 UNL     1      45.008  -0.692 103.455  1.00  0.00     0.142 C 
ENDBRANCH  20  21
ENDBRANCH  17  20
TORSDOF 2
ENDMDL
