MODEL 1
REMARK VINA RESULT:      -9.0      0.000      0.000
REMARK  4 active torsions:
REMARK  status: ('A' for Active; 'I' for Inactive)
REMARK    1  A    between atoms: C9_9  and  C15_15 
REMARK    2  A    between atoms: C17_17  and  C18_18 
REMARK    3  A    between atoms: C21_21  and  C24_24 
REMARK    4  A    between atoms: C24_24  and  O1_25 
ROOT
HETATM    1  C1  UNL     1      48.798  -7.197 106.685  1.00  0.00     0.015 C 
HETATM    2  C2  UNL     1      48.770  -7.338 108.197  1.00  0.00     0.015 C 
HETATM    3  C3  UNL     1      47.788  -6.343 108.854  1.00  0.00    -0.020 C 
HETATM    4  C4  UNL     1      47.935  -4.933 108.268  1.00  0.00    -0.043 A 
HETATM    5  C5  UNL     1      48.621  -4.681 107.056  1.00  0.00    -0.042 A 
HETATM    6  C6  UNL     1      49.289  -5.801 106.242  1.00  0.00    -0.020 C 
HETATM    7  C7  UNL     1      47.336  -3.843 108.934  1.00  0.00     0.009 A 
HETATM    8  C8  UNL     1      47.438  -2.536 108.456  1.00  0.00     0.012 A 
HETATM    9  C9  UNL     1      48.140  -2.270 107.284  1.00  0.00    -0.030 A 
HETATM   10  C10 UNL     1      48.728  -3.345 106.603  1.00  0.00     0.020 A 
HETATM   11  C11 UNL     1      48.969  -5.683 104.733  1.00  0.00     0.020 C 
HETATM   12  C12 UNL     1      50.820  -5.700 106.424  1.00  0.00     0.020 C 
HETATM   13  C13 UNL     1      46.334  -6.819 108.636  1.00  0.00     0.020 C 
HETATM   14  C14 UNL     1      48.085  -6.370 110.371  1.00  0.00     0.020 C 
ENDROOT
BRANCH   9  15
HETATM   15  C15 UNL     1      48.274  -0.884 106.781  1.00  0.00    -0.051 C 
HETATM   16  C16 UNL     1      47.046  -0.294 106.141  1.00  0.00     0.049 C 
HETATM   17  C17 UNL     1      49.458  -0.254 106.919  1.00  0.00     0.019 C 
BRANCH  17  18
HETATM   18  C18 UNL     1      49.744   1.105 106.451  1.00  0.00    -0.036 A 
HETATM   19  C19 UNL     1      49.879   2.144 107.378  1.00  0.00     0.012 A 
HETATM   20  C20 UNL     1      50.157   3.442 106.940  1.00  0.00     0.019 A 
HETATM   21  C21 UNL     1      50.306   3.710 105.575  1.00  0.00     0.037 A 
HETATM   22  C22 UNL     1      50.174   2.669 104.646  1.00  0.00     0.019 A 
HETATM   23  C23 UNL     1      49.896   1.370 105.085  1.00  0.00     0.012 A 
BRANCH  21  24
HETATM   24  C24 UNL     1      50.601   5.102 105.159  1.00  0.00     0.176 C 
HETATM   25  O2  UNL     1      50.978   5.454 104.057  1.00  0.00    -0.646 OA
BRANCH  24  26
HETATM   26  O1  UNL     1      50.410   5.994 106.148  1.00  0.00    -0.773 OA
HETATM   27  H28 UNL     1      49.650   5.630 106.648  1.00  0.00     0.167 HD
ENDBRANCH  24  26
ENDBRANCH  21  24
ENDBRANCH  17  18
ENDBRANCH   9  15
TORSDOF 4
ENDMDL
