MODEL 1
REMARK VINA RESULT:      -6.8      0.000      0.000
REMARK  3 active torsions:
REMARK  status: ('A' for Active; 'I' for Inactive)
REMARK    1  A    between atoms: C2_2  and  O4_19 
REMARK    2  A    between atoms: C3_3  and  O3_18 
REMARK    3  A    between atoms: C13_13  and  O2_16 
ROOT
HETATM    1  C1  UNL     1      46.896   0.275 103.090  1.00  0.00     0.040 A 
HETATM    2  C2  UNL     1      46.530   1.441 102.494  1.00  0.00     0.101 A 
HETATM    3  C3  UNL     1      47.387   2.555 102.520  1.00  0.00     0.106 A 
HETATM    4  C4  UNL     1      48.636   2.457 103.168  1.00  0.00    -0.006 A 
HETATM    5  C5  UNL     1      48.978   1.252 103.776  1.00  0.00    -0.046 A 
HETATM    6  C6  UNL     1      48.115   0.191 103.727  1.00  0.00     0.011 A 
HETATM    7  C7  UNL     1      49.557   3.645 103.082  1.00  0.00     0.008 A 
HETATM    8  C8  UNL     1      50.869   3.046 103.534  1.00  0.00     0.058 A 
HETATM    9  C9  UNL     1      50.458   2.511 104.885  1.00  0.00     0.235 C 
HETATM   10  C10 UNL     1      50.228   1.131 104.629  1.00  0.00     0.075 C 
HETATM   11  C11 UNL     1      49.659   4.246 101.735  1.00  0.00     0.101 C 
HETATM   12  C12 UNL     1      51.025   3.963 101.150  1.00  0.00     0.183 C 
HETATM   13  C13 UNL     1      51.654   2.650 101.371  1.00  0.00     0.110 C 
HETATM   14  C14 UNL     1      51.560   2.186 102.621  1.00  0.00     0.022 C 
HETATM   15  O1  UNL     1      51.573   4.868 100.491  1.00  0.00    -0.290 OA
HETATM   16  C17 UNL     1      49.374   4.597 104.249  1.00  0.00     0.046 C 
HETATM   17  C18 UNL     1      50.509   4.691 105.250  1.00  0.00     0.273 C 
HETATM   18  N1  UNL     1      51.031   3.385 105.747  1.00  0.00     0.089 NA
HETATM   19  C19 UNL     1      50.900   3.224 107.146  1.00  0.00     0.310 C 
HETATM   20 CL1  UNL     1      48.835   2.538 103.324  1.00  0.00    -0.145 Cl
HETATM   21  H24 UNL     1      50.149   2.922 103.131  1.00  0.00     0.145 HD
ENDROOT
BRANCH   2  22
HETATM   22  O4  UNL     1      45.296   1.584 101.830  1.00  0.00    -0.353 OA
HETATM   23  C16 UNL     1      45.121   0.841 100.650  1.00  0.00     0.210 C 
ENDBRANCH   2  22
BRANCH   3  24
HETATM   24  O3  UNL     1      46.911   3.669 101.904  1.00  0.00    -0.357 OA
HETATM   25  H13 UNL     1      46.416   3.877 101.105  1.00  0.00     0.217 HD
ENDBRANCH   3  24
BRANCH  13  26
HETATM   26  O2  UNL     1      52.285   1.987 100.344  1.00  0.00    -0.353 OA
HETATM   27  C15 UNL     1      51.768   2.206  99.026  1.00  0.00     0.210 C 
ENDBRANCH  13  26
TORSDOF 3
ENDMDL
