MODEL 1
REMARK VINA RESULT:      -7.8      0.000      0.000
REMARK  7 active torsions:
REMARK  status: ('A' for Active; 'I' for Inactive)
REMARK    1  A    between atoms: C1_1  and  C19_28 
REMARK    2  A    between atoms: C2_2  and  N4_9 
REMARK    3  A    between atoms: C3_4  and  N3_7 
REMARK    4  A    between atoms: N3_7  and  C5_8 
REMARK    5  A    between atoms: N4_9  and  C6_10 
REMARK    6  A    between atoms: C10_14  and  C14_20 
REMARK    7  A    between atoms: C12_16  and  O1_17 
REMARK       I    between atoms: C14_20  and  N5_22 
ROOT
HETATM    1  C5  UNL     1      50.049   0.695 103.767  1.00  0.00     0.085 A 
HETATM    2  C8  UNL     1      51.385   1.042 103.533  1.00  0.00     0.076 A 
HETATM    3  C9  UNL     1      51.780   1.551 102.299  1.00  0.00     0.134 A 
HETATM    4  C10 UNL     1      50.859   1.700 101.268  1.00  0.00     0.073 A 
HETATM    5  C11 UNL     1      49.512   1.388 101.482  1.00  0.00     0.059 A 
HETATM    6  C12 UNL     1      49.108   0.884 102.721  1.00  0.00     0.096 A 
HETATM    7  F1  UNL     1      53.065   1.894 102.129  1.00  0.00    -0.205 F 
ENDROOT
BRANCH   1   8
HETATM    8  N3  UNL     1      49.591   0.167 104.984  1.00  0.00    -0.185 N 
HETATM    9  H2  UNL     1      49.079  -0.702 104.894  1.00  0.00     0.184 HD
BRANCH   8  10
HETATM   10  C3  UNL     1      49.639   0.575 106.308  1.00  0.00     0.728 A 
HETATM   11  N1  UNL     1      49.979   1.859 106.504  1.00  0.00    -0.050 NA
HETATM   12  C2  UNL     1      50.042   2.344 107.758  1.00  0.00     0.139 A 
HETATM   13  C1  UNL     1      49.777   1.539 108.847  1.00  0.00     0.106 A 
HETATM   14  C4  UNL     1      49.442   0.237 108.560  1.00  0.00     0.156 A 
HETATM   15  N2  UNL     1      49.357  -0.259 107.313  1.00  0.00    -0.074 NA
BRANCH  12  16
HETATM   16  N4  UNL     1      50.442   3.676 107.952  1.00  0.00    -0.276 NA
HETATM   17  H3  UNL     1      49.641   4.259 108.197  1.00  0.00     0.129 HD
BRANCH  16  18
HETATM   18  C6  UNL     1      51.221   4.265 106.865  1.00  0.00     0.089 C 
HETATM   19  C7  UNL     1      50.335   5.210 106.069  1.00  0.00     0.021 C 
ENDBRANCH  16  18
ENDBRANCH  12  16
BRANCH  13  20
HETATM   20  C19 UNL     1      49.877   2.006 110.252  1.00  0.00     0.422 C 
HETATM   21  F2  UNL     1      51.159   1.998 110.723  1.00  0.00    -0.166 F 
HETATM   22  F3  UNL     1      49.174   1.231 111.129  1.00  0.00    -0.166 F 
HETATM   23  F4  UNL     1      49.435   3.280 110.432  1.00  0.00    -0.166 F 
ENDBRANCH  13  20
ENDBRANCH   8  10
ENDBRANCH   1   8
BRANCH   6  24
HETATM   24  O1  UNL     1      47.814   0.530 103.036  1.00  0.00    -0.354 OA
HETATM   25  C13 UNL     1      47.170  -0.402 102.174  1.00  0.00     0.210 C 
ENDBRANCH   6  24
BRANCH   4  26
HETATM   26  C14 UNL     1      51.251   2.254  99.959  1.00  0.00     0.257 C 
HETATM   27  O2  UNL     1      51.916   1.531  99.219  1.00  0.00    -0.267 OA
HETATM   28  N5  UNL     1      50.903   3.556  99.631  1.00  0.00    -0.344 N 
HETATM   29  C15 UNL     1      51.240   4.055  98.296  1.00  0.00     0.152 C 
HETATM   30  C18 UNL     1      50.347   4.556 100.550  1.00  0.00     0.152 C 
HETATM   31  C16 UNL     1      50.367   5.255  97.921  1.00  0.00     0.187 C 
HETATM   32  O3  UNL     1      50.473   6.354  98.839  1.00  0.00    -0.388 OA
HETATM   33  C17 UNL     1      50.819   5.966 100.175  1.00  0.00     0.187 C 
ENDBRANCH   4  26
TORSDOF 7
ENDMDL
