MODEL 1
REMARK VINA RESULT:      -8.5      0.000      0.000
REMARK  7 active torsions:
REMARK  status: ('A' for Active; 'I' for Inactive)
REMARK    1  A    between atoms: C7_7  and  C15_18 
REMARK    2  A    between atoms: N2_9  and  C8_10 
REMARK    3  A    between atoms: C8_10  and  C9_11 
REMARK       I    between atoms: C15_18  and  N3_19 
REMARK    4  A    between atoms: N3_19  and  C16_20 
REMARK    5  A    between atoms: C16_20  and  C17_21 
REMARK    6  A    between atoms: C16_20  and  C18_22 
REMARK    7  A    between atoms: C17_21  and  O2_25 
ROOT
HETATM    1  C1  UNL     1      50.134   2.039 110.909  1.00  0.00     0.002 A 
HETATM    2  C2  UNL     1      50.701   3.164 110.316  1.00  0.00     0.001 A 
HETATM    3  C3  UNL     1      50.733   3.297 108.924  1.00  0.00     0.016 A 
HETATM    4  C4  UNL     1      50.184   2.275 108.121  1.00  0.00     0.028 A 
HETATM    5  C5  UNL     1      49.625   1.158 108.739  1.00  0.00     0.065 A 
HETATM    6  C6  UNL     1      49.585   1.014 110.133  1.00  0.00     0.032 A 
HETATM    7  C7  UNL     1      50.029   2.050 106.723  1.00  0.00     0.157 A 
HETATM    8  N1  UNL     1      49.419   0.870 106.482  1.00  0.00    -0.166 NA
HETATM    9  N2  UNL     1      49.181   0.366 107.709  1.00  0.00    -0.268 N 
ENDROOT
BRANCH   7  10
HETATM   10  C15 UNL     1      50.450   2.927 105.621  1.00  0.00     0.273 C 
HETATM   11  O1  UNL     1      50.515   4.149 105.709  1.00  0.00    -0.266 OA
HETATM   12  N3  UNL     1      50.771   2.240 104.474  1.00  0.00    -0.341 N 
HETATM   13  H18 UNL     1      50.705   1.223 104.524  1.00  0.00     0.163 HD
BRANCH  12  14
HETATM   14  C16 UNL     1      51.273   2.878 103.263  1.00  0.00     0.188 C 
BRANCH  14  15
HETATM   15  C17 UNL     1      50.064   3.352 102.446  1.00  0.00     0.281 C 
HETATM   16  O3  UNL     1      49.978   4.450 101.906  1.00  0.00    -0.263 OA
BRANCH  15  17
HETATM   17  O2  UNL     1      49.097   2.392 102.416  1.00  0.00    -0.325 OA
HETATM   18  C21 UNL     1      47.767   2.902 102.505  1.00  0.00     0.213 C 
ENDBRANCH  15  17
ENDBRANCH  14  15
BRANCH  14  19
HETATM   19  C18 UNL     1      52.208   1.934 102.475  1.00  0.00     0.010 C 
HETATM   20  C19 UNL     1      51.940   0.451 102.752  1.00  0.00     0.012 C 
HETATM   21  C20 UNL     1      52.156   2.202 100.969  1.00  0.00     0.012 C 
ENDBRANCH  14  19
ENDBRANCH  12  14
ENDBRANCH   7  10
BRANCH   9  22
HETATM   22  C8  UNL     1      48.528  -0.928 107.814  1.00  0.00     0.156 C 
BRANCH  22  23
HETATM   23  C9  UNL     1      48.261  -1.597 106.454  1.00  0.00     0.005 C 
HETATM   24  C10 UNL     1      48.604  -3.098 106.537  1.00  0.00     0.006 C 
HETATM   25  C11 UNL     1      47.884  -3.958 105.495  1.00  0.00     0.000 C 
HETATM   26  C12 UNL     1      47.523  -3.165 104.249  1.00  0.00     0.000 C 
HETATM   27  C13 UNL     1      46.596  -1.994 104.577  1.00  0.00     0.000 C 
HETATM   28  C14 UNL     1      46.819  -1.402 105.972  1.00  0.00     0.006 C 
ENDBRANCH  22  23
ENDBRANCH   9  22
TORSDOF 7
ENDMDL
