MODEL 1
REMARK VINA RESULT:      -7.3      0.000      0.000
REMARK  14 active torsions:
REMARK  status: ('A' for Active; 'I' for Inactive)
REMARK    1  A    between atoms: C1_1  and  C7_8 
REMARK    2  A    between atoms: C2_2  and  C8_9 
REMARK    3  A    between atoms: C7_8  and  C16_17 
REMARK    4  A    between atoms: C9_10  and  C10_11 
REMARK    5  A    between atoms: C10_11  and  C11_12 
REMARK    6  A    between atoms: C10_11  and  O2_22 
REMARK    7  A    between atoms: C11_12  and  C12_13 
REMARK    8  A    between atoms: C12_13  and  C13_14 
REMARK    9  A    between atoms: C13_14  and  C14_15 
REMARK   10  A    between atoms: C17_18  and  C18_19 
REMARK   11  A    between atoms: C18_19  and  C19_20 
REMARK   12  A    between atoms: C19_20  and  C20_21 
REMARK   13  A    between atoms: C20_21  and  C21_23 
REMARK   14  A    between atoms: C21_23  and  O4_25 
ROOT
HETATM    1  C1  UNL     1      47.763  -0.354 105.461  1.00  0.00     0.005 C 
HETATM    2  C2  UNL     1      48.891  -0.706 106.479  1.00  0.00     0.042 C 
HETATM    3  C3  UNL     1      48.261  -1.926 107.203  1.00  0.00     0.130 C 
HETATM    4  O1  UNL     1      48.417  -3.058 106.306  1.00  0.00    -0.385 OA
HETATM    5  C4  UNL     1      47.416  -2.868 105.279  1.00  0.00     0.173 C 
HETATM    6  C5  UNL     1      46.770  -1.534 105.643  1.00  0.00     0.017 C 
HETATM    7  C6  UNL     1      46.766  -1.664 107.160  1.00  0.00     0.039 C 
ENDROOT
BRANCH   1   8
HETATM    8  C7  UNL     1      48.300  -0.130 104.044  1.00  0.00     0.032 C 
BRANCH   8   9
HETATM    9  C16 UNL     1      49.770   0.191 104.039  1.00  0.00    -0.030 C 
HETATM   10  C17 UNL     1      50.542   0.123 102.941  1.00  0.00    -0.031 C 
BRANCH  10  11
HETATM   11  C18 UNL     1      52.015   0.427 102.835  1.00  0.00     0.027 C 
BRANCH  11  12
HETATM   12  C19 UNL     1      52.444   1.892 102.710  1.00  0.00     0.014 C 
BRANCH  12  13
HETATM   13  C20 UNL     1      51.660   2.650 101.637  1.00  0.00     0.110 C 
BRANCH  13  14
HETATM   14  C21 UNL     1      52.272   2.464 100.275  1.00  0.00     0.139 C 
HETATM   15  O3  UNL     1      53.270   3.002  99.829  1.00  0.00    -0.650 OA
BRANCH  14  16
HETATM   16  O4  UNL     1      51.584   1.573  99.534  1.00  0.00    -0.776 OA
HETATM   17  H34 UNL     1      50.848   1.292 100.118  1.00  0.00     0.167 HD
ENDBRANCH  14  16
ENDBRANCH  13  14
ENDBRANCH  12  13
ENDBRANCH  11  12
ENDBRANCH  10  11
ENDBRANCH   8   9
ENDBRANCH   1   8
BRANCH   2  18
HETATM   18  C8  UNL     1      49.337   0.372 107.440  1.00  0.00    -0.021 C 
HETATM   19  C9  UNL     1      49.576   0.250 108.758  1.00  0.00     0.001 C 
BRANCH  19  20
HETATM   20  C10 UNL     1      49.989   1.354 109.700  1.00  0.00     0.140 C 
BRANCH  20  21
HETATM   21  C11 UNL     1      51.487   1.683 109.620  1.00  0.00     0.036 C 
BRANCH  21  22
HETATM   22  C12 UNL     1      51.795   3.029 108.950  1.00  0.00     0.003 C 
BRANCH  22  23
HETATM   23  C13 UNL     1      50.561   3.695 108.331  1.00  0.00    -0.000 C 
BRANCH  23  24
HETATM   24  C14 UNL     1      50.830   4.316 106.960  1.00  0.00    -0.005 C 
HETATM   25  C15 UNL     1      50.328   3.420 105.837  1.00  0.00     0.005 C 
ENDBRANCH  23  24
ENDBRANCH  22  23
ENDBRANCH  21  22
ENDBRANCH  20  21
BRANCH  20  26
HETATM   26  O2  UNL     1      49.647   1.040 111.044  1.00  0.00    -0.392 OA
HETATM   27  H33 UNL     1      48.681   0.934 111.067  1.00  0.00     0.210 HD
ENDBRANCH  20  26
ENDBRANCH  19  20
ENDBRANCH   2  18
TORSDOF 14
ENDMDL
