MODEL 1
REMARK VINA RESULT:      -7.5      0.000      0.000
REMARK  13 active torsions:
REMARK  status: ('A' for Active; 'I' for Inactive)
REMARK    1  A    between atoms: C2_3  and  C7_8 
REMARK    2  A    between atoms: C3_4  and  C9_10 
REMARK    3  A    between atoms: C8_9  and  C16_17 
REMARK    4  A    between atoms: C9_10  and  C10_11 
REMARK    5  A    between atoms: C11_12  and  C12_13 
REMARK    6  A    between atoms: C12_13  and  C13_14 
REMARK    7  A    between atoms: C13_14  and  C14_15 
REMARK    8  A    between atoms: C14_15  and  C15_16 
REMARK    9  A    between atoms: C15_16  and  O4_25 
REMARK   10  A    between atoms: C16_17  and  C17_18 
REMARK   11  A    between atoms: C16_17  and  O2_23 
REMARK   12  A    between atoms: C17_18  and  C18_19 
REMARK   13  A    between atoms: C19_20  and  C20_21 
ROOT
HETATM    1  O1  UNL     1      48.019  -2.479 105.338  1.00  0.00    -0.385 OA
HETATM    2  C1  UNL     1      47.879  -1.445 106.349  1.00  0.00     0.130 C 
HETATM    3  C2  UNL     1      48.886  -0.330 105.979  1.00  0.00     0.042 C 
HETATM    4  C3  UNL     1      48.142   0.372 104.805  1.00  0.00     0.005 C 
HETATM    5  C4  UNL     1      47.339  -1.962 104.171  1.00  0.00     0.173 C 
HETATM    6  C5  UNL     1      46.913  -0.554 104.591  1.00  0.00     0.017 C 
HETATM    7  C6  UNL     1      46.515  -0.845 106.033  1.00  0.00     0.039 C 
ENDROOT
BRANCH   3   8
HETATM    8  C7  UNL     1      49.157   0.620 107.120  1.00  0.00    -0.021 C 
HETATM    9  C8  UNL     1      49.671   0.246 108.305  1.00  0.00     0.001 C 
BRANCH   9  10
HETATM   10  C16 UNL     1      50.007   1.157 109.459  1.00  0.00     0.144 C 
BRANCH  10  11
HETATM   11  C17 UNL     1      51.250   2.041 109.218  1.00  0.00     0.062 C 
BRANCH  11  12
HETATM   12  C18 UNL     1      50.938   3.481 108.884  1.00  0.00    -0.028 C 
HETATM   13  C19 UNL     1      50.820   4.033 107.664  1.00  0.00    -0.031 C 
BRANCH  13  14
HETATM   14  C20 UNL     1      50.917   3.343 106.334  1.00  0.00     0.022 C 
HETATM   15  C21 UNL     1      50.164   4.105 105.255  1.00  0.00     0.009 C 
ENDBRANCH  13  14
ENDBRANCH  11  12
ENDBRANCH  10  11
BRANCH  10  16
HETATM   16  O2  UNL     1      50.152   0.413 110.668  1.00  0.00    -0.391 OA
HETATM   17  H31 UNL     1      51.096   0.175 110.732  1.00  0.00     0.210 HD
ENDBRANCH  10  16
ENDBRANCH   9  10
ENDBRANCH   3   8
BRANCH   4  18
HETATM   18  C9  UNL     1      48.989   0.607 103.547  1.00  0.00     0.032 C 
BRANCH  18  19
HETATM   19  C10 UNL     1      50.464   0.591 103.833  1.00  0.00    -0.030 C 
HETATM   20  C11 UNL     1      51.462   0.374 102.964  1.00  0.00    -0.031 C 
BRANCH  20  21
HETATM   21  C12 UNL     1      51.341   0.098 101.493  1.00  0.00     0.027 C 
BRANCH  21  22
HETATM   22  C13 UNL     1      51.115   1.353 100.639  1.00  0.00     0.014 C 
BRANCH  22  23
HETATM   23  C14 UNL     1      52.167   2.444 100.814  1.00  0.00     0.110 C 
BRANCH  23  24
HETATM   24  C15 UNL     1      52.773   2.868  99.510  1.00  0.00     0.139 C 
HETATM   25  O3  UNL     1      52.927   2.171  98.521  1.00  0.00    -0.650 OA
BRANCH  24  26
HETATM   26  O4  UNL     1      53.170   4.153  99.510  1.00  0.00    -0.776 OA
HETATM   27  H32 UNL     1      53.013   4.443  98.590  1.00  0.00     0.167 HD
ENDBRANCH  24  26
ENDBRANCH  23  24
ENDBRANCH  22  23
ENDBRANCH  21  22
ENDBRANCH  20  21
ENDBRANCH  18  19
ENDBRANCH   4  18
TORSDOF 13
ENDMDL
