MODEL 1
REMARK VINA RESULT:      -8.4      0.000      0.000
REMARK  6 active torsions:
REMARK  status: ('A' for Active; 'I' for Inactive)
REMARK    1  A    between atoms: C4_4  and  O7_23 
REMARK    2  A    between atoms: C5_5  and  C10_14 
REMARK    3  A    between atoms: C7_8  and  O2_11 
REMARK    4  A    between atoms: C9_10  and  O3_12 
REMARK    5  A    between atoms: C13_17  and  O6_22 
REMARK    6  A    between atoms: C14_18  and  O5_20 
ROOT
HETATM    1  C1  UNL     1      50.805   2.304 103.573  1.00  0.00     0.096 A 
HETATM    2  C2  UNL     1      50.784   3.586 103.030  1.00  0.00     0.084 A 
HETATM    3  C3  UNL     1      50.578   4.716 103.938  1.00  0.00     0.223 A 
HETATM    4  C4  UNL     1      50.411   4.415 105.379  1.00  0.00     0.152 A 
HETATM    5  C5  UNL     1      50.457   3.129 105.776  1.00  0.00     0.123 A 
HETATM    6  O1  UNL     1      50.641   2.058 104.910  1.00  0.00    -0.306 OA
HETATM    7  C6  UNL     1      50.997   1.201 102.741  1.00  0.00     0.075 A 
HETATM    8  C7  UNL     1      51.166   1.394 101.373  1.00  0.00     0.071 A 
HETATM    9  C8  UNL     1      51.147   2.672 100.820  1.00  0.00     0.074 A 
HETATM   10  C9  UNL     1      50.954   3.770 101.653  1.00  0.00     0.085 A 
HETATM   11  O4  UNL     1      50.539   5.876 103.534  1.00  0.00    -0.284 OA
ENDROOT
BRANCH   5  12
HETATM   12  C10 UNL     1      50.290   2.709 107.185  1.00  0.00     0.004 A 
HETATM   13  C11 UNL     1      50.700   3.528 108.247  1.00  0.00     0.017 A 
HETATM   14  C12 UNL     1      50.556   3.104 109.569  1.00  0.00     0.040 A 
HETATM   15  C13 UNL     1      50.008   1.851 109.836  1.00  0.00     0.099 A 
HETATM   16  C14 UNL     1      49.600   1.005 108.796  1.00  0.00     0.102 A 
HETATM   17  C15 UNL     1      49.748   1.443 107.474  1.00  0.00     0.054 A 
BRANCH  15  18
HETATM   18  O6  UNL     1      49.868   1.434 111.132  1.00  0.00    -0.358 OA
HETATM   19  H11 UNL     1      49.362   2.097 111.627  1.00  0.00     0.217 HD
ENDBRANCH  15  18
BRANCH  16  20
HETATM   20  O5  UNL     1      49.079  -0.205 109.171  1.00  0.00    -0.353 OA
HETATM   21  C16 UNL     1      48.503  -1.015 108.155  1.00  0.00     0.210 C 
ENDBRANCH  16  20
ENDBRANCH   5  12
BRANCH   4  22
HETATM   22  O7  UNL     1      50.202   5.487 106.226  1.00  0.00    -0.355 OA
HETATM   23  H12 UNL     1      49.299   5.363 106.583  1.00  0.00     0.218 HD
ENDBRANCH   4  22
BRANCH  10  24
HETATM   24  O3  UNL     1      50.943   5.001 101.058  1.00  0.00    -0.360 OA
HETATM   25  H4  UNL     1      51.689   5.532 101.421  1.00  0.00     0.217 HD
ENDBRANCH  10  24
BRANCH   8  26
HETATM   26  O2  UNL     1      51.351   0.289 100.597  1.00  0.00    -0.361 OA
HETATM   27  H3  UNL     1      52.119  -0.206 100.929  1.00  0.00     0.217 HD
ENDBRANCH   8  26
TORSDOF 6
ENDMDL
