MODEL 1
REMARK VINA RESULT:      -8.8      0.000      0.000
REMARK  4 active torsions:
REMARK  status: ('A' for Active; 'I' for Inactive)
REMARK    1  A    between atoms: C4_4  and  C8_8 
REMARK       I    between atoms: C8_8  and  N1_10 
REMARK    2  A    between atoms: N1_10  and  C9_11 
REMARK    3  A    between atoms: C12_14  and  C15_17 
REMARK       I    between atoms: C15_17  and  N2_19 
REMARK    4  A    between atoms: C18_22  and  N3_30 
ROOT
HETATM    1  C9  UNL     1      47.539  -0.957 105.928  1.00  0.00     0.035 A 
HETATM    2  C10 UNL     1      47.610  -0.801 104.572  1.00  0.00     0.030 A 
HETATM    3  C11 UNL     1      47.177  -1.803 103.730  1.00  0.00     0.019 A 
HETATM    4  C12 UNL     1      46.655  -2.999 104.227  1.00  0.00     0.032 A 
HETATM    5  C13 UNL     1      46.596  -3.123 105.587  1.00  0.00     0.019 A 
HETATM    6  C14 UNL     1      47.017  -2.149 106.454  1.00  0.00     0.030 A 
HETATM    7 CL1  UNL     1      46.915  -3.204 105.418  1.00  0.00    -0.145 Cl
HETATM    8  H30 UNL     1      46.505  -4.363 104.806  1.00  0.00     0.145 HD
ENDROOT
BRANCH   4   9
HETATM    9  C15 UNL     1      46.153  -4.001 103.288  1.00  0.00     0.258 C 
HETATM   10  O2  UNL     1      46.782  -5.099 103.196  1.00  0.00    -0.267 OA
HETATM   11  N2  UNL     1      45.021  -3.788 102.503  1.00  0.00    -0.313 N 
HETATM   12  C16 UNL     1      45.001  -4.360 101.188  1.00  0.00     0.045 A 
HETATM   13  C21 UNL     1      43.836  -3.128 103.058  1.00  0.00     0.133 C 
HETATM   14  C17 UNL     1      43.914  -4.690 100.363  1.00  0.00     0.002 A 
HETATM   15  C22 UNL     1      46.261  -4.654 100.717  1.00  0.00     0.030 A 
HETATM   16  C18 UNL     1      42.521  -4.333 100.796  1.00  0.00     0.257 C 
HETATM   17  C25 UNL     1      44.043  -5.284  99.145  1.00  0.00     0.012 A 
HETATM   18  C19 UNL     1      42.268  -4.951 102.150  1.00  0.00     0.042 C 
HETATM   19  C20 UNL     1      42.796  -4.209 103.284  1.00  0.00     0.023 C 
HETATM   20  C24 UNL     1      45.327  -5.570  98.703  1.00  0.00     0.001 A 
HETATM   21  C23 UNL     1      46.417  -5.254  99.484  1.00  0.00     0.002 A 
BRANCH  16  22
HETATM   22  N3  UNL     1      41.531  -4.649  99.831  1.00  0.00     0.088 N 
HETATM   23  C26 UNL     1      40.544  -5.569 100.430  1.00  0.00     0.310 C 
HETATM   24  C27 UNL     1      40.719  -3.398  99.691  1.00  0.00     0.310 C 
ENDBRANCH  16  22
ENDBRANCH   4   9
BRANCH   1  25
HETATM   25  N1  UNL     1      47.992   0.029 106.836  1.00  0.00    -0.323 N 
HETATM   26  C8  UNL     1      49.295   0.189 107.290  1.00  0.00     0.256 C 
HETATM   27  O1  UNL     1      50.239  -0.573 106.896  1.00  0.00    -0.267 OA
HETATM   28  H8  UNL     1      47.251   0.722 107.155  1.00  0.00     0.169 HD
BRANCH  26  29
HETATM   29  C4  UNL     1      49.720   1.226 108.239  1.00  0.00     0.038 A 
HETATM   30  C3  UNL     1      50.203   2.438 107.867  1.00  0.00    -0.046 A 
HETATM   31  C2  UNL     1      50.657   3.360 108.814  1.00  0.00     0.007 A 
HETATM   32  C7  UNL     1      50.225   2.892 106.462  1.00  0.00     0.049 C 
HETATM   33  C1  UNL     1      50.622   3.051 110.148  1.00  0.00     0.001 A 
HETATM   34  C6  UNL     1      50.127   1.821 110.506  1.00  0.00     0.001 A 
HETATM   35  C5  UNL     1      49.678   0.901 109.604  1.00  0.00     0.017 A 
ENDBRANCH  26  29
ENDBRANCH   1  25
TORSDOF 4
ENDMDL
