MODEL 1
REMARK VINA RESULT:      -7.9      0.000      0.000
REMARK  6 active torsions:
REMARK  status: ('A' for Active; 'I' for Inactive)
REMARK    1  A    between atoms: N1_9  and  C13_16 
REMARK    2  A    between atoms: C13_16  and  C14_17 
REMARK    3  A    between atoms: C14_17  and  O1_18 
REMARK    4  A    between atoms: C14_17  and  C15_19 
REMARK    5  A    between atoms: C15_19  and  N2_20 
REMARK    6  A    between atoms: N2_20  and  C16_21 
ROOT
HETATM    1  C1  UNL     1      48.718  -0.900 103.612  1.00  0.00     0.021 A 
HETATM    2  C2  UNL     1      48.310  -1.381 104.851  1.00  0.00     0.011 A 
HETATM    3  C3  UNL     1      48.594  -0.679 106.025  1.00  0.00     0.033 A 
HETATM    4  C4  UNL     1      49.306   0.538 105.946  1.00  0.00     0.005 A 
HETATM    5  C5  UNL     1      49.699   1.011 104.695  1.00  0.00     0.046 A 
HETATM    6  C6  UNL     1      49.420   0.304 103.513  1.00  0.00     0.032 A 
HETATM    7  C7  UNL     1      49.761   1.472 106.927  1.00  0.00     0.005 A 
HETATM    8  C8  UNL     1      50.419   2.506 106.255  1.00  0.00     0.046 A 
HETATM    9  N1  UNL     1      50.361   2.207 104.905  1.00  0.00    -0.343 N 
HETATM   10  C9  UNL     1      49.667   1.523 108.334  1.00  0.00     0.033 A 
HETATM   11  C10 UNL     1      50.235   2.601 109.019  1.00  0.00     0.011 A 
HETATM   12  C11 UNL     1      50.888   3.622 108.336  1.00  0.00     0.021 A 
HETATM   13  C12 UNL     1      50.992   3.591 106.941  1.00  0.00     0.032 A 
HETATM   14 BR1  UNL     1      50.115   2.670 110.906  1.00  0.00    -0.051 Br
HETATM   15 BR2  UNL     1      47.361  -3.015 104.953  1.00  0.00    -0.051 Br
ENDROOT
BRANCH   9  16
HETATM   16  C13 UNL     1      50.907   3.060 103.849  1.00  0.00     0.162 C 
BRANCH  16  17
HETATM   17  C14 UNL     1      49.900   4.121 103.390  1.00  0.00     0.149 C 
BRANCH  17  18
HETATM   18  O1  UNL     1      50.577   5.365 103.141  1.00  0.00    -0.393 OA
HETATM   19  H10 UNL     1      49.993   5.849 102.521  1.00  0.00     0.210 HD
ENDBRANCH  17  18
BRANCH  17  20
HETATM   20  C15 UNL     1      49.176   3.702 102.097  1.00  0.00     0.126 C 
BRANCH  20  21
HETATM   21  N2  UNL     1      47.740   3.538 102.364  1.00  0.00    -0.291 NA
HETATM   22  H13 UNL     1      47.516   3.783 103.329  1.00  0.00     0.127 HD
BRANCH  21  23
HETATM   23  C16 UNL     1      47.051   2.386 101.977  1.00  0.00     0.008 A 
HETATM   24  C17 UNL     1      47.409   1.777 100.764  1.00  0.00     0.023 A 
HETATM   25  C18 UNL     1      46.815   0.585 100.339  1.00  0.00     0.002 A 
HETATM   26  C19 UNL     1      45.866  -0.040 101.138  1.00  0.00     0.000 A 
HETATM   27  C20 UNL     1      45.527   0.522 102.364  1.00  0.00     0.002 A 
HETATM   28  C21 UNL     1      46.124   1.717 102.782  1.00  0.00     0.023 A 
ENDBRANCH  21  23
ENDBRANCH  20  21
ENDBRANCH  17  20
ENDBRANCH  16  17
ENDBRANCH   9  16
TORSDOF 6
ENDMDL
