MODEL 1
REMARK VINA RESULT:      -7.5      0.000      0.000
REMARK  6 active torsions:
REMARK  status: ('A' for Active; 'I' for Inactive)
REMARK    1  A    between atoms: C5_7  and  N2_8 
REMARK       I    between atoms: N2_8  and  C6_9 
REMARK    2  A    between atoms: C6_9  and  C7_10 
REMARK    3  A    between atoms: C7_10  and  N3_11 
REMARK       I    between atoms: N3_11  and  C8_12 
REMARK    4  A    between atoms: C8_12  and  C9_13 
REMARK    5  A    between atoms: C9_13  and  C10_14 
REMARK    6  A    between atoms: C9_13  and  O2_17 
ROOT
HETATM    1  N2  UNL     1      48.484  -0.142 106.912  1.00  0.00    -0.342 N 
HETATM    2  C6  UNL     1      47.243  -0.512 106.441  1.00  0.00     0.241 C 
HETATM    3  O4  UNL     1      46.473   0.266 105.876  1.00  0.00    -0.271 OA
HETATM    4  H9  UNL     1      49.162  -0.889 107.021  1.00  0.00     0.163 HD
ENDROOT
BRANCH   1   5
HETATM    5  C5  UNL     1      49.082   1.135 106.513  1.00  0.00     0.211 C 
HETATM    6  C1  UNL     1      49.820   0.867 105.174  1.00  0.00     0.246 C 
HETATM    7  O1  UNL     1      50.007  -0.298 104.796  1.00  0.00    -0.271 OA
HETATM    8  N1  UNL     1      50.193   1.958 104.382  1.00  0.00    -0.354 N 
HETATM    9  C2  UNL     1      50.676   1.618 103.050  1.00  0.00     0.152 C 
HETATM   10  C3  UNL     1      50.768   3.194 104.931  1.00  0.00     0.130 C 
HETATM   11  C4  UNL     1      50.124   3.808 106.172  1.00  0.00     0.059 C 
HETATM   12  C15 UNL     1      50.475   3.026 107.415  1.00  0.00    -0.048 A 
HETATM   13  C14 UNL     1      49.996   1.711 107.579  1.00  0.00    -0.020 A 
HETATM   14  C16 UNL     1      51.299   3.601 108.394  1.00  0.00     0.008 A 
HETATM   15  C19 UNL     1      50.370   0.998 108.732  1.00  0.00     0.010 A 
HETATM   16  C18 UNL     1      51.194   1.579 109.698  1.00  0.00     0.001 A 
HETATM   17  C17 UNL     1      51.657   2.879 109.531  1.00  0.00     0.001 A 
ENDBRANCH   1   5
BRANCH   2  18
HETATM   18  C7  UNL     1      46.878  -1.991 106.672  1.00  0.00     0.172 C 
HETATM   19  C13 UNL     1      47.272  -2.428 108.078  1.00  0.00     0.042 C 
BRANCH  18  20
HETATM   20  N3  UNL     1      47.573  -2.776 105.661  1.00  0.00    -0.346 N 
HETATM   21  C8  UNL     1      47.009  -3.092 104.453  1.00  0.00     0.247 C 
HETATM   22  O3  UNL     1      45.853  -2.797 104.151  1.00  0.00    -0.271 OA
HETATM   23  H11 UNL     1      48.536  -3.026 105.870  1.00  0.00     0.163 HD
BRANCH  21  24
HETATM   24  C9  UNL     1      47.904  -3.892 103.486  1.00  0.00     0.213 C 
BRANCH  24  25
HETATM   25  C10 UNL     1      47.877  -3.338 102.048  1.00  0.00     0.015 C 
HETATM   26  C11 UNL     1      48.660  -4.219 101.073  1.00  0.00     0.012 C 
HETATM   27  C12 UNL     1      48.438  -1.913 102.008  1.00  0.00     0.012 C 
ENDBRANCH  24  25
BRANCH  24  28
HETATM   28  O2  UNL     1      47.527  -5.270 103.483  1.00  0.00    -0.386 OA
HETATM   29  H20 UNL     1      47.827  -5.629 102.622  1.00  0.00     0.210 HD
ENDBRANCH  24  28
ENDBRANCH  21  24
ENDBRANCH  18  20
ENDBRANCH   2  18
TORSDOF 6
ENDMDL
