MODEL 1
REMARK VINA RESULT:      -8.2      0.000      0.000
REMARK  0 active torsions:
REMARK  status: ('A' for Active; 'I' for Inactive)
ROOT
HETATM    1  C1  UNL     1      50.014   1.771 105.661  1.00  0.00    -0.008 A 
HETATM    2  C2  UNL     1      49.954   0.290 105.721  1.00  0.00     0.145 C 
HETATM    3  C3  UNL     1      48.961  -0.261 106.718  1.00  0.00     0.226 C 
HETATM    4  N1  UNL     1      48.999   0.082 108.039  1.00  0.00    -0.325 N 
HETATM    5  C4  UNL     1      49.656   1.121 108.728  1.00  0.00     0.066 A 
HETATM    6  C5  UNL     1      50.217   2.276 108.173  1.00  0.00     0.110 A 
HETATM    7  C6  UNL     1      50.170   2.594 106.756  1.00  0.00     0.071 A 
HETATM    8  N2  UNL     1      50.284   3.880 106.291  1.00  0.00    -0.353 N 
HETATM    9  C7  UNL     1      50.159   3.920 104.924  1.00  0.00     0.043 A 
HETATM   10  C8  UNL     1      49.990   2.603 104.495  1.00  0.00     0.001 A 
HETATM   11  O1  UNL     1      48.169  -1.149 106.384  1.00  0.00    -0.273 OA
HETATM   12  C9  UNL     1      49.677   1.018 110.124  1.00  0.00     0.033 A 
HETATM   13  C10 UNL     1      50.265   2.018 110.897  1.00  0.00     0.022 A 
HETATM   14  C11 UNL     1      50.803   3.113 110.250  1.00  0.00     0.117 A 
HETATM   15  N3  UNL     1      50.781   3.271 108.910  1.00  0.00    -0.257 NA
HETATM   16  C12 UNL     1      50.193   5.009 104.045  1.00  0.00     0.031 A 
HETATM   17  C13 UNL     1      50.051   4.743 102.681  1.00  0.00     0.021 A 
HETATM   18  C14 UNL     1      49.886   3.438 102.225  1.00  0.00     0.011 A 
HETATM   19  C15 UNL     1      49.855   2.358 103.113  1.00  0.00     0.033 A 
HETATM   20 BR1  UNL     1      49.700   3.117 100.369  1.00  0.00    -0.051 Br
HETATM   21  H3  UNL     1      48.406  -0.530 108.590  1.00  0.00     0.169 HD
HETATM   22  H4  UNL     1      50.436   4.678 106.895  1.00  0.00     0.166 HD
ENDROOT
TORSDOF 0
ENDMDL
