MODEL 1
REMARK VINA RESULT:      -9.2      0.000      0.000
REMARK  4 active torsions:
REMARK  status: ('A' for Active; 'I' for Inactive)
REMARK    1  A    between atoms: C3_3  and  S1_7 
REMARK    2  A    between atoms: C6_6  and  C8_11 
REMARK    3  A    between atoms: N4_20  and  C14_21 
REMARK    4  A    between atoms: C18_25  and  N5_27 
ROOT
HETATM    1  C8  UNL     1      46.321  -4.679 107.023  1.00  0.00     0.023 A 
HETATM    2  C9  UNL     1      46.981  -3.442 107.347  1.00  0.00     0.181 A 
HETATM    3  N1  UNL     1      47.129  -2.489 106.341  1.00  0.00    -0.210 N 
HETATM    4  C10 UNL     1      46.664  -2.685 105.043  1.00  0.00     0.121 A 
HETATM    5  C11 UNL     1      46.039  -3.829 104.726  1.00  0.00     0.020 A 
HETATM    6  C12 UNL     1      45.865  -4.842 105.756  1.00  0.00     0.017 A 
HETATM    7  N2  UNL     1      47.508  -2.984 108.462  1.00  0.00    -0.041 NA
HETATM    8  C13 UNL     1      47.979  -1.749 108.114  1.00  0.00     0.746 A 
HETATM    9  N3  UNL     1      47.771  -1.413 106.842  1.00  0.00     0.027 NA
HETATM   10  N4  UNL     1      48.579  -1.059 109.099  1.00  0.00    -0.187 N 
HETATM   11  H11 UNL     1      48.615  -1.555 109.979  1.00  0.00     0.184 HD
ENDROOT
BRANCH  10  12
HETATM   12  C14 UNL     1      49.173   0.219 109.151  1.00  0.00     0.051 A 
HETATM   13  C15 UNL     1      49.509   0.751 110.401  1.00  0.00     0.030 A 
HETATM   14  C16 UNL     1      50.098   2.007 110.505  1.00  0.00     0.004 A 
HETATM   15  C17 UNL     1      50.364   2.752 109.353  1.00  0.00     0.029 A 
HETATM   16  C18 UNL     1      50.054   2.268 108.074  1.00  0.00     0.032 A 
HETATM   17  C19 UNL     1      49.455   0.993 108.014  1.00  0.00     0.059 A 
BRANCH  16  18
HETATM   18  N5  UNL     1      50.321   3.005 106.931  1.00  0.00    -0.377 N 
HETATM   19  C20 UNL     1      50.270   2.389 105.593  1.00  0.00     0.153 C 
HETATM   20  C21 UNL     1      51.194   3.133 104.600  1.00  0.00     0.291 C 
HETATM   21  N6  UNL     1      50.959   4.586 104.461  1.00  0.00     0.087 N 
HETATM   22  C22 UNL     1      50.333   5.146 105.678  1.00  0.00     0.291 C 
HETATM   23  C24 UNL     1      50.152   4.894 103.283  1.00  0.00     0.310 C 
HETATM   24  C23 UNL     1      50.723   4.420 106.987  1.00  0.00     0.153 C 
ENDBRANCH  16  18
ENDBRANCH  10  12
BRANCH   1  25
HETATM   25  C6  UNL     1      46.079  -5.764 108.003  1.00  0.00    -0.022 A 
HETATM   26  C1  UNL     1      44.778  -6.221 108.276  1.00  0.00     0.014 A 
HETATM   27  C2  UNL     1      44.563  -7.249 109.197  1.00  0.00     0.024 A 
HETATM   28  C3  UNL     1      45.654  -7.835 109.840  1.00  0.00     0.058 A 
HETATM   29  C4  UNL     1      46.953  -7.391 109.589  1.00  0.00     0.024 A 
HETATM   30  C5  UNL     1      47.162  -6.363 108.666  1.00  0.00     0.014 A 
BRANCH  28  31
HETATM   31  S1  UNL     1      45.385  -9.138 111.020  1.00  0.00     0.171 S 
HETATM   32  C7  UNL     1      46.211  -8.544 112.472  1.00  0.00     0.167 C 
HETATM   33  O1  UNL     1      46.092 -10.310 110.545  1.00  0.00    -0.223 OA
HETATM   34  O2  UNL     1      43.961  -9.188 111.296  1.00  0.00    -0.223 OA
ENDBRANCH  28  31
ENDBRANCH   1  25
TORSDOF 4
ENDMDL
