MODEL 1
REMARK VINA RESULT:      -8.2      0.000      0.000
REMARK  4 active torsions:
REMARK  status: ('A' for Active; 'I' for Inactive)
REMARK    1  A    between atoms: C2_2  and  C16_20 
REMARK    2  A    between atoms: C4_4  and  N1_7 
REMARK    3  A    between atoms: N1_7  and  S1_8 
REMARK    4  A    between atoms: S1_8  and  C7_9 
ROOT
HETATM    1  N1  UNL     1      49.709   3.438 104.770  1.00  0.00    -0.181 NA
HETATM    2  H5  UNL     1      49.688   4.422 105.042  1.00  0.00     0.146 HD
ENDROOT
BRANCH   1   3
HETATM    3  C4  UNL     1      49.841   2.569 105.900  1.00  0.00     0.023 A 
HETATM    4  C3  UNL     1      50.344   3.062 107.106  1.00  0.00     0.040 A 
HETATM    5  C2  UNL     1      50.520   2.205 108.204  1.00  0.00     0.049 A 
HETATM    6  C1  UNL     1      50.179   0.849 108.069  1.00  0.00     0.016 A 
HETATM    7  C6  UNL     1      49.694   0.356 106.857  1.00  0.00     0.003 A 
HETATM    8  C5  UNL     1      49.532   1.215 105.771  1.00  0.00     0.024 A 
BRANCH   5   9
HETATM    9  C16 UNL     1      51.035   2.735 109.518  1.00  0.00     0.417 C 
HETATM   10  F1  UNL     1      51.372   1.736 110.378  1.00  0.00    -0.166 F 
HETATM   11  F2  UNL     1      52.151   3.505 109.381  1.00  0.00    -0.166 F 
HETATM   12  F3  UNL     1      50.129   3.507 110.179  1.00  0.00    -0.166 F 
ENDBRANCH   5   9
ENDBRANCH   1   3
BRANCH   1  13
HETATM   13  S1  UNL     1      50.945   3.248 103.599  1.00  0.00     0.246 S 
HETATM   14  O1  UNL     1      52.169   2.822 104.241  1.00  0.00    -0.205 OA
HETATM   15  O2  UNL     1      50.915   4.452 102.798  1.00  0.00    -0.205 OA
BRANCH  13  16
HETATM   16  C7  UNL     1      50.285   1.853 102.660  1.00  0.00     0.086 A 
HETATM   17  C8  UNL     1      48.949   1.923 102.181  1.00  0.00    -0.038 A 
HETATM   18  C9  UNL     1      48.420   0.829 101.472  1.00  0.00     0.015 A 
HETATM   19  C15 UNL     1      48.031   3.094 102.414  1.00  0.00     0.050 C 
HETATM   20  C10 UNL     1      49.176  -0.316 101.225  1.00  0.00    -0.061 A 
HETATM   21  C11 UNL     1      50.496  -0.361 101.677  1.00  0.00     0.015 A 
HETATM   22  C14 UNL     1      48.601  -1.455 100.438  1.00  0.00     0.048 C 
HETATM   23  C12 UNL     1      51.071   0.704 102.398  1.00  0.00    -0.038 A 
HETATM   24  C13 UNL     1      52.498   0.525 102.841  1.00  0.00     0.050 C 
ENDBRANCH  13  16
ENDBRANCH   1  13
TORSDOF 4
ENDMDL
