MODEL 1
REMARK VINA RESULT:      -7.0      0.000      0.000
REMARK  14 active torsions:
REMARK  status: ('A' for Active; 'I' for Inactive)
REMARK    1  A    between atoms: C4_4  and  C7_7 
REMARK    2  A    between atoms: C7_7  and  S1_8 
REMARK    3  A    between atoms: S1_8  and  C8_9 
REMARK    4  A    between atoms: C8_9  and  C9_10 
REMARK    5  A    between atoms: C9_10  and  C10_11 
REMARK    6  A    between atoms: C10_11  and  C11_12 
REMARK    7  A    between atoms: C10_11  and  S2_18 
REMARK    8  A    between atoms: C11_12  and  C12_13 
REMARK    9  A    between atoms: C12_13  and  C13_14 
REMARK   10  A    between atoms: C13_14  and  C14_15 
REMARK   11  A    between atoms: C14_15  and  C15_16 
REMARK   12  A    between atoms: C15_16  and  O1_17 
REMARK   13  A    between atoms: S2_18  and  C16_19 
REMARK   14  A    between atoms: C16_19  and  C17_20 
ROOT
HETATM    1  C10 UNL     1      49.968   1.746 103.573  1.00  0.00     0.048 C 
ENDROOT
BRANCH   1   2
HETATM    2  C9  UNL     1      48.460   1.416 103.464  1.00  0.00     0.025 C 
BRANCH   2   3
HETATM    3  C8  UNL     1      48.196   0.283 102.470  1.00  0.00     0.075 C 
BRANCH   3   4
HETATM    4  S1  UNL     1      46.876  -0.842 103.027  1.00  0.00    -0.164 SA
BRANCH   4   5
HETATM    5  C7  UNL     1      46.595  -0.179 104.701  1.00  0.00     0.112 C 
BRANCH   5   6
HETATM    6  C4  UNL     1      47.068  -1.143 105.761  1.00  0.00    -0.049 A 
HETATM    7  C3  UNL     1      46.493  -1.133 107.041  1.00  0.00     0.008 A 
HETATM    8  C2  UNL     1      46.929  -2.029 108.019  1.00  0.00     0.001 A 
HETATM    9  C1  UNL     1      47.934  -2.948 107.726  1.00  0.00     0.000 A 
HETATM   10  C6  UNL     1      48.504  -2.975 106.456  1.00  0.00     0.001 A 
HETATM   11  C5  UNL     1      48.072  -2.080 105.476  1.00  0.00     0.008 A 
ENDBRANCH   5   6
ENDBRANCH   4   5
ENDBRANCH   3   4
ENDBRANCH   2   3
ENDBRANCH   1   2
BRANCH   1  12
HETATM   12  C11 UNL     1      50.866   0.498 103.449  1.00  0.00     0.015 C 
BRANCH  12  13
HETATM   13  C12 UNL     1      51.868   0.510 102.287  1.00  0.00     0.002 C 
BRANCH  13  14
HETATM   14  C13 UNL     1      52.099   1.909 101.706  1.00  0.00     0.010 C 
BRANCH  14  15
HETATM   15  C14 UNL     1      51.638   2.016 100.251  1.00  0.00     0.110 C 
BRANCH  15  16
HETATM   16  C15 UNL     1      52.733   2.474  99.325  1.00  0.00     0.139 C 
HETATM   17  O2  UNL     1      53.651   3.234  99.582  1.00  0.00    -0.650 OA
BRANCH  16  18
HETATM   18  O1  UNL     1      52.591   1.961  98.087  1.00  0.00    -0.776 OA
HETATM   19  H21 UNL     1      52.606   0.991  98.227  1.00  0.00     0.167 HD
ENDBRANCH  16  18
ENDBRANCH  15  16
ENDBRANCH  14  15
ENDBRANCH  13  14
ENDBRANCH  12  13
ENDBRANCH   1  12
BRANCH   1  20
HETATM   20  S2  UNL     1      50.252   2.533 105.223  1.00  0.00    -0.160 SA
BRANCH  20  21
HETATM   21  C16 UNL     1      49.677   1.223 106.357  1.00  0.00     0.112 C 
BRANCH  21  22
HETATM   22  C17 UNL     1      49.860   1.545 107.818  1.00  0.00    -0.049 A 
HETATM   23  C18 UNL     1      50.274   2.826 108.216  1.00  0.00     0.008 A 
HETATM   24  C19 UNL     1      50.438   3.130 109.569  1.00  0.00     0.001 A 
HETATM   25  C20 UNL     1      50.198   2.157 110.537  1.00  0.00     0.000 A 
HETATM   26  C21 UNL     1      49.795   0.879 110.155  1.00  0.00     0.001 A 
HETATM   27  C22 UNL     1      49.630   0.572 108.803  1.00  0.00     0.008 A 
ENDBRANCH  21  22
ENDBRANCH  20  21
ENDBRANCH   1  20
TORSDOF 14
ENDMDL
