MODEL 1
REMARK VINA RESULT:      -7.6      0.000      0.000
REMARK  4 active torsions:
REMARK  status: ('A' for Active; 'I' for Inactive)
REMARK    1  A    between atoms: C4_4  and  O2_13 
REMARK    2  A    between atoms: C5_5  and  N3_15 
REMARK    3  A    between atoms: N3_15  and  S1_16 
REMARK    4  A    between atoms: S1_16  and  C11_17 
ROOT
HETATM    1  C1  UNL     1      50.398   2.671 100.032  1.00  0.00     0.067 A 
HETATM    2  C2  UNL     1      49.146   2.761  99.418  1.00  0.00     0.068 A 
HETATM    3  C3  UNL     1      47.973   2.832 100.144  1.00  0.00     0.070 A 
HETATM    4  C4  UNL     1      48.082   2.802 101.539  1.00  0.00     0.092 A 
HETATM    5  C5  UNL     1      49.363   2.708 102.154  1.00  0.00     0.058 A 
HETATM    6  C6  UNL     1      50.537   2.646 101.401  1.00  0.00     0.059 A 
HETATM    7  N1  UNL     1      51.368   2.609  99.026  1.00  0.00    -0.302 N 
HETATM    8  C7  UNL     1      50.733   2.662  97.766  1.00  0.00     0.329 A 
HETATM    9  N2  UNL     1      49.348   2.759  98.032  1.00  0.00    -0.302 N 
HETATM   10  C8  UNL     1      52.781   2.497  99.243  1.00  0.00     0.161 C 
HETATM   11  C9  UNL     1      48.316   2.835  97.040  1.00  0.00     0.161 C 
HETATM   12  O1  UNL     1      51.267   2.627  96.669  1.00  0.00    -0.246 OA
ENDROOT
BRANCH   5  13
HETATM   13  N3  UNL     1      49.437   2.636 103.584  1.00  0.00    -0.179 NA
HETATM   14  H12 UNL     1      48.723   3.198 104.053  1.00  0.00     0.146 HD
BRANCH  13  15
HETATM   15  S1  UNL     1      49.525   1.098 104.295  1.00  0.00     0.246 S 
HETATM   16  O3  UNL     1      50.755   0.502 103.814  1.00  0.00    -0.206 OA
HETATM   17  O4  UNL     1      48.261   0.420 104.111  1.00  0.00    -0.206 OA
BRANCH  15  18
HETATM   18  C11 UNL     1      49.773   1.465 106.034  1.00  0.00     0.080 A 
HETATM   19  C12 UNL     1      50.159   2.787 106.333  1.00  0.00     0.027 A 
HETATM   20  C13 UNL     1      50.364   3.186 107.653  1.00  0.00     0.020 A 
HETATM   21  C14 UNL     1      50.196   2.263 108.678  1.00  0.00     0.011 A 
HETATM   22  C15 UNL     1      49.839   0.944 108.393  1.00  0.00     0.027 A 
HETATM   23 BR1  UNL     1      50.459   2.797 110.472  1.00  0.00    -0.051 Br
HETATM   24  C16 UNL     1      49.627   0.519 107.067  1.00  0.00    -0.038 A 
HETATM   25  C17 UNL     1      49.285  -0.927 106.844  1.00  0.00     0.050 C 
ENDBRANCH  15  18
ENDBRANCH  13  15
ENDBRANCH   5  13
BRANCH   4  26
HETATM   26  O2  UNL     1      47.022   2.870 102.412  1.00  0.00    -0.354 OA
HETATM   27  C10 UNL     1      45.869   2.104 102.083  1.00  0.00     0.210 C 
ENDBRANCH   4  26
TORSDOF 4
ENDMDL
