MODEL 1
REMARK VINA RESULT:      -8.3      0.000      0.000
REMARK  7 active torsions:
REMARK  status: ('A' for Active; 'I' for Inactive)
REMARK    1  A    between atoms: C17_17  and  O1_18 
REMARK    2  A    between atoms: O1_18  and  C21_23 
REMARK    3  A    between atoms: C21_23  and  C22_24 
REMARK    4  A    between atoms: C22_24  and  C23_26 
REMARK    5  A    between atoms: C23_26  and  C24_27 
REMARK    6  A    between atoms: C24_27  and  C25_28 
REMARK    7  A    between atoms: C25_28  and  C26_29 
ROOT
HETATM    1  C1  UNL     1      46.432  -4.138 107.981  1.00  0.00     0.053 C 
HETATM    2  C2  UNL     1      45.831  -5.071 107.004  1.00  0.00     0.149 C 
HETATM    3  C3  UNL     1      46.013  -4.792 105.539  1.00  0.00     0.088 C 
HETATM    4  C4  UNL     1      46.406  -3.330 105.297  1.00  0.00     0.005 C 
HETATM    5  C5  UNL     1      47.657  -2.869 106.141  1.00  0.00    -0.013 C 
HETATM    6  C6  UNL     1      47.264  -3.138 107.625  1.00  0.00    -0.071 C 
HETATM    7  C7  UNL     1      46.535  -3.094 103.793  1.00  0.00     0.006 C 
HETATM    8  C8  UNL     1      46.749  -1.623 103.502  1.00  0.00     0.006 C 
HETATM    9  C9  UNL     1      48.007  -1.113 104.199  1.00  0.00    -0.005 C 
HETATM   10  C10 UNL     1      47.971  -1.349 105.758  1.00  0.00     0.003 C 
HETATM   11  C11 UNL     1      48.211   0.383 103.921  1.00  0.00     0.001 C 
HETATM   12  C12 UNL     1      49.547   0.913 104.469  1.00  0.00    -0.013 C 
HETATM   13  C13 UNL     1      49.533   0.722 105.988  1.00  0.00     0.012 C 
HETATM   14  C14 UNL     1      49.279  -0.749 106.371  1.00  0.00     0.007 C 
HETATM   15  C15 UNL     1      48.198   0.892 102.481  1.00  0.00     0.008 C 
HETATM   16  C16 UNL     1      48.888   2.264 102.566  1.00  0.00     0.034 C 
HETATM   17  C17 UNL     1      49.454   2.381 104.000  1.00  0.00     0.140 C 
HETATM   18  C18 UNL     1      50.810   0.236 103.874  1.00  0.00     0.018 C 
HETATM   19  C19 UNL     1      48.895  -3.750 105.844  1.00  0.00     0.021 C 
HETATM   20  O2  UNL     1      45.235  -6.066 107.407  1.00  0.00    -0.293 OA
HETATM   21  C20 UNL     1      47.843  -2.317 108.742  1.00  0.00     0.044 C 
ENDROOT
BRANCH  17  22
HETATM   22  O1  UNL     1      50.732   3.024 104.021  1.00  0.00    -0.315 OA
BRANCH  22  23
HETATM   23  C21 UNL     1      50.744   4.292 104.513  1.00  0.00     0.259 C 
HETATM   24  O3  UNL     1      51.169   5.278 103.926  1.00  0.00    -0.265 OA
BRANCH  23  25
HETATM   25  C22 UNL     1      50.170   4.317 105.906  1.00  0.00     0.111 C 
BRANCH  25  26
HETATM   26  C23 UNL     1      51.146   3.703 106.905  1.00  0.00     0.010 C 
BRANCH  26  27
HETATM   27  C24 UNL     1      50.614   3.702 108.342  1.00  0.00     0.000 C 
BRANCH  27  28
HETATM   28  C25 UNL     1      51.529   2.964 109.321  1.00  0.00    -0.000 C 
BRANCH  28  29
HETATM   29  C26 UNL     1      50.764   2.136 110.359  1.00  0.00    -0.005 C 
HETATM   30  C27 UNL     1      50.188   0.845 109.793  1.00  0.00     0.005 C 
ENDBRANCH  28  29
ENDBRANCH  27  28
ENDBRANCH  26  27
ENDBRANCH  25  26
ENDBRANCH  23  25
ENDBRANCH  22  23
ENDBRANCH  17  22
TORSDOF 7
ENDMDL
