MODEL 1
REMARK VINA RESULT:      -7.2      0.000      0.000
REMARK  6 active torsions:
REMARK  status: ('A' for Active; 'I' for Inactive)
REMARK    1  A    between atoms: C2_2  and  C7_8 
REMARK    2  A    between atoms: C7_8  and  S1_14 
REMARK    3  A    between atoms: C8_10  and  C16_24 
REMARK    4  A    between atoms: C9_11  and  C12_16 
REMARK    5  A    between atoms: C10_12  and  S1_14 
REMARK    6  A    between atoms: C12_16  and  C13_17 
ROOT
HETATM    1  N1  UNL     1      47.121   0.338 101.820  1.00  0.00    -0.166 NA
HETATM    2  C8  UNL     1      46.609  -0.292 102.898  1.00  0.00     0.173 A 
HETATM    3  C9  UNL     1      47.580  -0.382 103.936  1.00  0.00     0.036 A 
HETATM    4  C10 UNL     1      48.700   0.255 103.447  1.00  0.00     0.101 A 
HETATM    5  N2  UNL     1      48.397   0.614 102.161  1.00  0.00    -0.266 N 
HETATM    6  C11 UNL     1      49.257   1.243 101.183  1.00  0.00     0.181 C 
ENDROOT
BRANCH   3   7
HETATM    7  C12 UNL     1      47.417  -0.951 105.234  1.00  0.00     0.041 C 
BRANCH   7   8
HETATM    8  C13 UNL     1      47.751  -2.192 105.611  1.00  0.00     0.076 A 
HETATM    9  C14 UNL     1      48.056  -2.526 107.027  1.00  0.00     0.264 A 
HETATM   10  N3  UNL     1      48.354  -3.856 107.131  1.00  0.00    -0.307 N 
HETATM   11  O1  UNL     1      48.047  -1.742 107.961  1.00  0.00    -0.267 OA
HETATM   12  C15 UNL     1      48.325  -4.609 105.996  1.00  0.00     0.146 A 
HETATM   13  H11 UNL     1      48.587  -4.254 108.027  1.00  0.00     0.170 HD
HETATM   14  S2  UNL     1      47.879  -3.610 104.633  1.00  0.00    -0.055 SA
HETATM   15  S3  UNL     1      48.670  -6.226 105.961  1.00  0.00    -0.052 SA
ENDBRANCH   7   8
ENDBRANCH   3   7
BRANCH   2  16
HETATM   16  C16 UNL     1      45.197  -0.807 102.950  1.00  0.00     0.437 C 
HETATM   17  F1  UNL     1      44.527  -0.537 101.794  1.00  0.00    -0.164 F 
HETATM   18  F2  UNL     1      45.107  -2.148 103.147  1.00  0.00    -0.164 F 
HETATM   19  F3  UNL     1      44.482  -0.218 103.949  1.00  0.00    -0.164 F 
ENDBRANCH   2  16
BRANCH   4  20
HETATM   20  S1  UNL     1      50.242   0.603 104.173  1.00  0.00    -0.105 SA
BRANCH  20  21
HETATM   21  C7  UNL     1      49.977   2.294 104.794  1.00  0.00     0.119 C 
BRANCH  21  22
HETATM   22  C2  UNL     1      50.083   2.410 106.294  1.00  0.00    -0.048 A 
HETATM   23  C1  UNL     1      49.659   1.356 107.119  1.00  0.00     0.009 A 
HETATM   24  C6  UNL     1      49.771   1.455 108.508  1.00  0.00     0.024 A 
HETATM   25  C5  UNL     1      50.303   2.607 109.081  1.00  0.00     0.034 A 
HETATM   26  C4  UNL     1      50.727   3.663 108.277  1.00  0.00     0.024 A 
HETATM   27 CL1  UNL     1      50.439   2.726 110.791  1.00  0.00    -0.084 Cl
HETATM   28  C3  UNL     1      50.614   3.567 106.888  1.00  0.00     0.009 A 
ENDBRANCH  21  22
ENDBRANCH  20  21
ENDBRANCH   4  20
TORSDOF 6
ENDMDL
