MODEL 1
REMARK VINA RESULT:      -7.3      0.000      0.000
REMARK  7 active torsions:
REMARK  status: ('A' for Active; 'I' for Inactive)
REMARK    1  A    between atoms: C2_2  and  N2_15 
REMARK    2  A    between atoms: C3_3  and  C7_8 
REMARK    3  A    between atoms: C5_5  and  S1_11 
REMARK    4  A    between atoms: C7_8  and  O2_10 
REMARK    5  A    between atoms: S1_11  and  N1_12 
REMARK    6  A    between atoms: N2_15  and  C8_16 
REMARK    7  A    between atoms: C8_16  and  C12_21 
ROOT
HETATM    1  C1  UNL     1      50.125   2.666 105.764  1.00  0.00     0.050 A 
HETATM    2  C2  UNL     1      50.484   4.001 106.031  1.00  0.00     0.027 A 
HETATM    3  C3  UNL     1      50.508   4.914 104.954  1.00  0.00     0.060 A 
HETATM    4  C4  UNL     1      50.145   4.480 103.666  1.00  0.00     0.046 A 
HETATM    5  C5  UNL     1      49.768   3.149 103.431  1.00  0.00     0.097 A 
HETATM    6  C6  UNL     1      49.763   2.236 104.481  1.00  0.00     0.058 A 
HETATM    7 CL1  UNL     1      49.319   0.575 104.319  1.00  0.00    -0.083 Cl
ENDROOT
BRANCH   2   8
HETATM    8  N2  UNL     1      50.843   4.359 107.350  1.00  0.00    -0.286 NA
HETATM    9  H6  UNL     1      49.985   4.557 107.887  1.00  0.00     0.128 HD
BRANCH   8  10
HETATM   10  C8  UNL     1      51.630   3.368 108.099  1.00  0.00     0.157 C 
BRANCH  10  11
HETATM   11  C12 UNL     1      50.875   2.616 109.145  1.00  0.00     0.065 A 
HETATM   12  O5  UNL     1      50.672   1.285 108.915  1.00  0.00    -0.326 OA
HETATM   13  C9  UNL     1      49.989   0.798 109.984  1.00  0.00     0.142 A 
HETATM   14  C10 UNL     1      49.750   1.797 110.899  1.00  0.00     0.027 A 
HETATM   15  C11 UNL     1      50.321   2.975 110.358  1.00  0.00     0.036 A 
ENDBRANCH  10  11
ENDBRANCH   8  10
ENDBRANCH   2   8
BRANCH   3  16
HETATM   16  C7  UNL     1      50.875   6.354 105.070  1.00  0.00     0.178 C 
HETATM   17  O1  UNL     1      50.854   7.005 106.099  1.00  0.00    -0.646 OA
BRANCH  16  18
HETATM   18  O2  UNL     1      51.246   6.930 103.910  1.00  0.00    -0.773 OA
HETATM   19  H3  UNL     1      51.617   7.794 104.191  1.00  0.00     0.167 HD
ENDBRANCH  16  18
ENDBRANCH   3  16
BRANCH   5  20
HETATM   20  S1  UNL     1      49.342   2.678 101.785  1.00  0.00     0.241 S 
HETATM   21  O3  UNL     1      50.362   1.792 101.271  1.00  0.00    -0.206 OA
HETATM   22  O4  UNL     1      47.941   2.335 101.732  1.00  0.00    -0.206 OA
BRANCH  20  23
HETATM   23  N1  UNL     1      49.541   4.100 100.917  1.00  0.00    -0.225 NA
HETATM   24  H4  UNL     1      49.098   4.008 100.001  1.00  0.00     0.136 HD
HETATM   25  H5  UNL     1      50.532   4.340 100.869  1.00  0.00     0.136 HD
ENDBRANCH  20  23
ENDBRANCH   5  20
TORSDOF 7
ENDMDL
