MODEL 1
REMARK VINA RESULT:      -9.4      0.000      0.000
REMARK  6 active torsions:
REMARK  status: ('A' for Active; 'I' for Inactive)
REMARK    1  A    between atoms: N1_5  and  C5_7 
REMARK    2  A    between atoms: C9_11  and  C11_13 
REMARK    3  A    between atoms: C11_13  and  O2_14 
REMARK    4  A    between atoms: N2_16  and  C14_20 
REMARK    5  A    between atoms: C14_20  and  C15_21 
REMARK    6  A    between atoms: C17_23  and  C22_28 
ROOT
HETATM    1  C5  UNL     1      49.415   2.368 101.348  1.00  0.00     0.014 A 
HETATM    2  C6  UNL     1      49.637   1.771 102.601  1.00  0.00     0.055 A 
HETATM    3  C7  UNL     1      48.543   1.258 103.319  1.00  0.00     0.068 A 
HETATM    4  C8  UNL     1      47.237   1.289 102.835  1.00  0.00     0.102 A 
HETATM    5  C9  UNL     1      47.009   1.846 101.567  1.00  0.00     0.070 A 
HETATM    6  C10 UNL     1      48.102   2.379 100.850  1.00  0.00     0.044 A 
HETATM    7  N2  UNL     1      48.441   0.664 104.561  1.00  0.00    -0.329 N 
HETATM    8  C12 UNL     1      47.116   0.369 104.787  1.00  0.00     0.103 A 
HETATM    9  N3  UNL     1      46.378   0.750 103.768  1.00  0.00    -0.232 NA
HETATM   10  C13 UNL     1      46.600  -0.284 106.016  1.00  0.00     0.091 C 
ENDROOT
BRANCH   7  11
HETATM   11  C14 UNL     1      49.561   0.358 105.446  1.00  0.00     0.169 C 
BRANCH  11  12
HETATM   12  C15 UNL     1      49.887   1.468 106.435  1.00  0.00    -0.033 A 
HETATM   13  C16 UNL     1      49.787   1.259 107.839  1.00  0.00    -0.039 A 
HETATM   14  C17 UNL     1      50.142   2.306 108.731  1.00  0.00     0.054 A 
HETATM   15  C21 UNL     1      49.351  -0.084 108.377  1.00  0.00     0.049 C 
HETATM   16  C18 UNL     1      50.518   3.557 108.210  1.00  0.00     0.017 A 
HETATM   17  C19 UNL     1      50.558   3.777 106.839  1.00  0.00     0.001 A 
HETATM   18  C20 UNL     1      50.242   2.745 105.961  1.00  0.00     0.009 A 
BRANCH  14  19
HETATM   19  C22 UNL     1      50.126   2.129 110.236  1.00  0.00     0.418 C 
HETATM   20  F1  UNL     1      50.242   3.308 110.905  1.00  0.00    -0.166 F 
HETATM   21  F2  UNL     1      51.142   1.338 110.679  1.00  0.00    -0.166 F 
HETATM   22  F3  UNL     1      48.983   1.554 110.708  1.00  0.00    -0.166 F 
ENDBRANCH  14  19
ENDBRANCH  11  12
ENDBRANCH   7  11
BRANCH   1  23
HETATM   23  N1  UNL     1      50.447   2.919 100.567  1.00  0.00    -0.279 NA
HETATM   24  C3  UNL     1      51.830   2.451 100.800  1.00  0.00     0.122 C 
HETATM   25  C2  UNL     1      52.763   3.012  99.714  1.00  0.00     0.182 C 
HETATM   26  O1  UNL     1      52.721   4.447  99.681  1.00  0.00    -0.389 OA
HETATM   27  C1  UNL     1      51.386   4.890  99.393  1.00  0.00     0.182 C 
HETATM   28  C4  UNL     1      50.382   4.400 100.450  1.00  0.00     0.122 C 
ENDBRANCH   1  23
BRANCH   5  29
HETATM   29  C11 UNL     1      45.676   1.918 100.947  1.00  0.00     0.178 C 
HETATM   30  O3  UNL     1      45.366   1.370  99.903  1.00  0.00    -0.646 OA
BRANCH  29  31
HETATM   31  O2  UNL     1      44.772   2.601 101.662  1.00  0.00    -0.773 OA
HETATM   32  H11 UNL     1      45.298   3.217 102.210  1.00  0.00     0.167 HD
ENDBRANCH  29  31
ENDBRANCH   5  29
TORSDOF 6
ENDMDL
