MODEL 1
REMARK VINA RESULT:      -7.4      0.000      0.000
REMARK  6 active torsions:
REMARK  status: ('A' for Active; 'I' for Inactive)
REMARK    1  A    between atoms: C4_5  and  C6_7 
REMARK    2  A    between atoms: C6_7  and  N2_8 
REMARK    3  A    between atoms: N3_9  and  O1_10 
REMARK    4  A    between atoms: C8_12  and  C9_13 
REMARK    5  A    between atoms: C8_12  and  O2_14 
REMARK    6  A    between atoms: C9_13  and  N4_15 
ROOT
HETATM    1  O1  UNL     1      51.050   3.698 104.302  1.00  0.00    -0.252 OA
HETATM    2  C7  UNL     1      50.302   3.047 105.273  1.00  0.00     0.237 A 
HETATM    3  C8  UNL     1      50.800   3.601 106.616  1.00  0.00     0.172 A 
HETATM    4 CL1  UNL     1      49.807   3.269 104.857  1.00  0.00    -0.145 Cl
HETATM    5 CL2  UNL     1      49.808   3.269 104.855  1.00  0.00    -0.145 Cl
HETATM    6  H23 UNL     1      49.589   3.150 106.212  1.00  0.00     0.145 HD
HETATM    7  H24 UNL     1      49.588   3.151 106.214  1.00  0.00     0.145 HD
ENDROOT
BRANCH   1   8
HETATM    8  N3  UNL     1      51.034   3.593 102.970  1.00  0.00    -0.115 NA
HETATM    9  C6  UNL     1      51.688   2.740 102.262  1.00  0.00     0.160 C 
BRANCH   9  10
HETATM   10  C4  UNL     1      51.591   2.718 100.796  1.00  0.00     0.029 A 
HETATM   11  C3  UNL     1      50.332   2.750 100.244  1.00  0.00     0.131 A 
HETATM   12  N1  UNL     1      50.121   2.735  98.903  1.00  0.00    -0.272 NA
HETATM   13  C2  UNL     1      51.219   2.685  98.124  1.00  0.00     0.116 A 
HETATM   14  C1  UNL     1      52.505   2.651  98.617  1.00  0.00     0.020 A 
HETATM   15  C5  UNL     1      52.692   2.667  99.984  1.00  0.00     0.018 A 
ENDBRANCH   9  10
BRANCH   9  16
HETATM   16  N2  UNL     1      52.513   1.811 102.956  1.00  0.00    -0.382 N 
HETATM   17  H5  UNL     1      53.536   2.093 103.023  1.00  0.00     0.157 HD
HETATM   18  H6  UNL     1      52.121   0.943 103.349  1.00  0.00     0.157 HD
ENDBRANCH   9  16
ENDBRANCH   1   8
BRANCH   3  19
HETATM   19  C9  UNL     1      50.325   2.827 107.775  1.00  0.00     0.306 C 
BRANCH  19  20
HETATM   20  N4  UNL     1      51.277   2.447 108.753  1.00  0.00     0.091 N 
HETATM   21  C10 UNL     1      51.240   1.101 109.194  1.00  0.00     0.272 C 
HETATM   22  C11 UNL     1      49.832   0.649 109.576  1.00  0.00     0.030 C 
HETATM   23  C12 UNL     1      49.380   1.567 110.679  1.00  0.00     0.003 C 
HETATM   24  C13 UNL     1      50.417   2.578 111.065  1.00  0.00     0.030 C 
HETATM   25  C14 UNL     1      51.045   3.298 109.929  1.00  0.00     0.272 C 
ENDBRANCH  19  20
ENDBRANCH   3  19
BRANCH   3  26
HETATM   26  O2  UNL     1      50.579   4.944 106.611  1.00  0.00    -0.392 OA
HETATM   27  H12 UNL     1      50.023   5.251 105.865  1.00  0.00     0.210 HD
ENDBRANCH   3  26
TORSDOF 6
ENDMDL
