MODEL 1
REMARK VINA RESULT:      -6.6      0.000      0.000
REMARK  16 active torsions:
REMARK  status: ('A' for Active; 'I' for Inactive)
REMARK    1  A    between atoms: C1_1  and  C2_2 
REMARK    2  A    between atoms: C1_1  and  C6_6 
REMARK    3  A    between atoms: C3_3  and  C4_4 
REMARK    4  A    between atoms: C4_4  and  C7_7 
REMARK    5  A    between atoms: C5_5  and  C6_6 
REMARK    6  A    between atoms: C5_5  and  C10_10 
REMARK    7  A    between atoms: C7_7  and  C8_8 
REMARK    8  A    between atoms: C7_7  and  O2_20 
REMARK    9  A    between atoms: C8_8  and  C11_11 
REMARK   10  A    between atoms: C9_9  and  C10_10 
REMARK   11  A    between atoms: C9_9  and  C14_14 
REMARK   12  A    between atoms: C11_11  and  C12_12 
REMARK   13  A    between atoms: C12_12  and  C15_15 
REMARK   14  A    between atoms: C13_13  and  C14_14 
REMARK   15  A    between atoms: C13_13  and  C17_18 
REMARK   16  A    between atoms: C15_15  and  C16_16 
REMARK       I    between atoms: C17_18  and  N1_21 
ROOT
HETATM    1  C1  UNL     1      50.268   3.763 106.845  1.00  0.00     0.027 C 
ENDROOT
BRANCH   1   2
HETATM    2  C2  UNL     1      51.308   3.902 107.918  1.00  0.00    -0.031 C 
HETATM    3  C3  UNL     1      51.764   3.052 108.852  1.00  0.00    -0.028 C 
BRANCH   3   4
HETATM    4  C4  UNL     1      51.464   1.620 109.232  1.00  0.00     0.058 C 
BRANCH   4   5
HETATM    5  C7  UNL     1      50.042   1.199 109.628  1.00  0.00     0.121 C 
BRANCH   5   6
HETATM    6  C8  UNL     1      49.172   0.800 108.422  1.00  0.00     0.032 C 
BRANCH   6   7
HETATM    7  C11 UNL     1      49.894   0.213 107.199  1.00  0.00     0.002 C 
BRANCH   7   8
HETATM    8  C12 UNL     1      49.347  -1.136 106.730  1.00  0.00     0.000 C 
BRANCH   8   9
HETATM    9  C15 UNL     1      47.926  -1.418 107.226  1.00  0.00    -0.000 C 
BRANCH   9  10
HETATM   10  C16 UNL     1      46.887  -1.444 106.104  1.00  0.00    -0.005 C 
HETATM   11  C18 UNL     1      46.328  -0.056 105.834  1.00  0.00     0.005 C 
ENDBRANCH   9  10
ENDBRANCH   8   9
ENDBRANCH   7   8
ENDBRANCH   6   7
ENDBRANCH   5   6
BRANCH   5  12
HETATM   12  O2  UNL     1      50.076   0.105 110.545  1.00  0.00    -0.395 OA
HETATM   13  H33 UNL     1      49.345  -0.495 110.311  1.00  0.00     0.210 HD
ENDBRANCH   5  12
ENDBRANCH   4   5
ENDBRANCH   3   4
ENDBRANCH   1   2
BRANCH   1  14
HETATM   14  C6  UNL     1      50.343   4.853 105.767  1.00  0.00     0.004 C 
BRANCH  14  15
HETATM   15  C5  UNL     1      49.892   4.415 104.369  1.00  0.00     0.000 C 
BRANCH  15  16
HETATM   16  C10 UNL     1      49.745   2.911 104.131  1.00  0.00     0.000 C 
BRANCH  16  17
HETATM   17  C9  UNL     1      51.049   2.141 103.896  1.00  0.00     0.000 C 
BRANCH  17  18
HETATM   18  C14 UNL     1      50.888   0.668 103.514  1.00  0.00     0.009 C 
BRANCH  18  19
HETATM   19  C13 UNL     1      51.589   0.296 102.206  1.00  0.00     0.103 C 
BRANCH  19  20
HETATM   20  C17 UNL     1      50.797   0.737 100.984  1.00  0.00     0.219 C 
HETATM   21  O1  UNL     1      49.754   0.183 100.642  1.00  0.00    -0.273 OA
HETATM   22  N1  UNL     1      51.322   1.798 100.279  1.00  0.00    -0.352 N 
HETATM   23  C19 UNL     1      50.650   2.333  99.110  1.00  0.00     0.126 C 
HETATM   24  C22 UNL     1      52.550   2.522 100.564  1.00  0.00     0.126 C 
HETATM   25  C20 UNL     1      51.356   3.654  98.839  1.00  0.00     0.021 C 
HETATM   26  C21 UNL     1      52.773   3.386  99.330  1.00  0.00     0.021 C 
ENDBRANCH  19  20
ENDBRANCH  18  19
ENDBRANCH  17  18
ENDBRANCH  16  17
ENDBRANCH  15  16
ENDBRANCH  14  15
ENDBRANCH   1  14
TORSDOF 16
ENDMDL
