MODEL 1
REMARK VINA RESULT:      -8.7      0.000      0.000
REMARK  5 active torsions:
REMARK  status: ('A' for Active; 'I' for Inactive)
REMARK    1  A    between atoms: N1_1  and  C6_8 
REMARK    2  A    between atoms: C9_11  and  N3_16 
REMARK    3  A    between atoms: C10_12  and  O1_14 
REMARK    4  A    between atoms: N3_16  and  C13_17 
REMARK    5  A    between atoms: C16_21  and  C17_23 
ROOT
HETATM    1  N3  UNL     1      51.257   3.177 102.372  1.00  0.00    -0.185 N 
HETATM    2  H18 UNL     1      52.215   2.853 102.357  1.00  0.00     0.184 HD
ENDROOT
BRANCH   1   3
HETATM    3  C9  UNL     1      50.570   2.997 101.163  1.00  0.00     0.082 A 
HETATM    4  C8  UNL     1      49.199   3.183 101.017  1.00  0.00     0.035 A 
HETATM    5  C7  UNL     1      48.568   2.981  99.781  1.00  0.00     0.032 A 
HETATM    6  C6  UNL     1      49.274   2.578  98.639  1.00  0.00     0.033 A 
HETATM    7  C11 UNL     1      50.660   2.402  98.794  1.00  0.00     0.068 A 
HETATM    8  C10 UNL     1      51.306   2.601 100.025  1.00  0.00     0.097 A 
BRANCH   6   9
HETATM    9  N1  UNL     1      48.650   2.381  97.418  1.00  0.00    -0.377 N 
HETATM   10  C1  UNL     1      49.418   2.208  96.173  1.00  0.00     0.153 C 
HETATM   11  C2  UNL     1      48.546   1.522  95.096  1.00  0.00     0.291 C 
HETATM   12  N2  UNL     1      47.335   2.285  94.719  1.00  0.00     0.087 N 
HETATM   13  C3  UNL     1      46.848   3.106  95.846  1.00  0.00     0.291 C 
HETATM   14  C5  UNL     1      46.302   1.386  94.212  1.00  0.00     0.310 C 
HETATM   15  C4  UNL     1      47.199   2.590  97.262  1.00  0.00     0.153 C 
ENDBRANCH   6   9
BRANCH   8  16
HETATM   16  O1  UNL     1      52.659   2.441 100.239  1.00  0.00    -0.354 OA
HETATM   17  C12 UNL     1      53.542   3.058  99.313  1.00  0.00     0.210 C 
ENDBRANCH   8  16
ENDBRANCH   1   3
BRANCH   1  18
HETATM   18  C13 UNL     1      50.941   3.723 103.609  1.00  0.00     0.727 A 
HETATM   19  N4  UNL     1      50.940   5.047 103.820  1.00  0.00    -0.075 NA
HETATM   20  C14 UNL     1      50.622   5.477 105.054  1.00  0.00     0.139 A 
HETATM   21  C15 UNL     1      50.305   4.639 106.089  1.00  0.00     0.053 A 
HETATM   22  C16 UNL     1      50.330   3.295 105.791  1.00  0.00     0.089 A 
HETATM   23  N5  UNL     1      50.640   2.830 104.564  1.00  0.00    -0.062 NA
BRANCH  22  24
HETATM   24  C17 UNL     1      50.010   2.279 106.791  1.00  0.00     0.021 A 
HETATM   25  C18 UNL     1      49.425   1.061 106.495  1.00  0.00     0.105 A 
HETATM   26  N6  UNL     1      49.252   0.368 107.666  1.00  0.00    -0.358 N 
HETATM   27  C19 UNL     1      49.715   1.108 108.731  1.00  0.00     0.062 A 
HETATM   28  C21 UNL     1      48.663  -0.949 107.766  1.00  0.00     0.156 C 
HETATM   29  C20 UNL     1      50.190   2.316 108.213  1.00  0.00     0.007 A 
HETATM   30  C22 UNL     1      49.754   0.828 110.095  1.00  0.00     0.146 A 
HETATM   31  C24 UNL     1      50.720   3.255 109.113  1.00  0.00     0.034 A 
HETATM   32  C23 UNL     1      50.727   2.909 110.453  1.00  0.00     0.117 A 
HETATM   33  N7  UNL     1      50.267   1.742 110.948  1.00  0.00    -0.271 NA
ENDBRANCH  22  24
ENDBRANCH   1  18
TORSDOF 5
ENDMDL
