MODEL 1
REMARK VINA RESULT:      -8.6      0.000      0.000
REMARK  5 active torsions:
REMARK  status: ('A' for Active; 'I' for Inactive)
REMARK    1  A    between atoms: C3_3  and  O3_14 
REMARK    2  A    between atoms: C7_7  and  O2_13 
REMARK    3  A    between atoms: C8_8  and  C12_16 
REMARK       I    between atoms: C12_16  and  N2_18 
REMARK    4  A    between atoms: N2_18  and  C14_20 
REMARK    5  A    between atoms: C17_23  and  C20_26 
ROOT
HETATM    1  C1  UNL     1      50.021   2.643  96.948  1.00  0.00     0.005 A 
HETATM    2  C2  UNL     1      51.208   3.126  97.485  1.00  0.00     0.038 A 
HETATM    3  C3  UNL     1      51.338   3.306  98.866  1.00  0.00     0.083 A 
HETATM    4  C4  UNL     1      50.258   2.989  99.735  1.00  0.00     0.059 A 
HETATM    5  C5  UNL     1      49.054   2.498  99.179  1.00  0.00     0.052 A 
HETATM    6  C6  UNL     1      48.955   2.333  97.787  1.00  0.00     0.031 A 
HETATM    7  C7  UNL     1      50.317   3.159 101.210  1.00  0.00     0.102 A 
HETATM    8  C8  UNL     1      49.265   2.846 101.981  1.00  0.00     0.134 A 
HETATM    9  C9  UNL     1      48.019   2.293 101.414  1.00  0.00     0.266 A 
HETATM   10  N1  UNL     1      47.952   2.164 100.031  1.00  0.00    -0.317 N 
HETATM   11  C10 UNL     1      46.716   1.652  99.455  1.00  0.00     0.159 C 
HETATM   12  O1  UNL     1      47.111   1.937 102.165  1.00  0.00    -0.267 OA
ENDROOT
BRANCH   8  13
HETATM   13  C12 UNL     1      49.356   3.106 103.442  1.00  0.00     0.266 C 
HETATM   14  O4  UNL     1      48.966   4.208 103.838  1.00  0.00    -0.267 OA
HETATM   15  N2  UNL     1      49.849   2.065 104.251  1.00  0.00    -0.318 N 
HETATM   16  C13 UNL     1      50.075   0.723 103.710  1.00  0.00     0.159 C 
BRANCH  15  17
HETATM   17  C14 UNL     1      50.022   2.239 105.674  1.00  0.00     0.037 A 
HETATM   18  C15 UNL     1      50.689   3.352 106.208  1.00  0.00     0.030 A 
HETATM   19  C16 UNL     1      50.868   3.507 107.589  1.00  0.00     0.018 A 
HETATM   20  C17 UNL     1      50.393   2.545 108.485  1.00  0.00     0.048 A 
HETATM   21  C18 UNL     1      49.725   1.430 107.968  1.00  0.00     0.018 A 
HETATM   22  C19 UNL     1      49.549   1.279 106.586  1.00  0.00     0.030 A 
BRANCH  20  23
HETATM   23  C20 UNL     1      50.563   2.721 109.973  1.00  0.00     0.417 C 
HETATM   24  F1  UNL     1      50.635   1.541 110.650  1.00  0.00    -0.166 F 
HETATM   25  F2  UNL     1      51.697   3.406 110.290  1.00  0.00    -0.166 F 
HETATM   26  F3  UNL     1      49.538   3.413 110.547  1.00  0.00    -0.166 F 
ENDBRANCH  20  23
ENDBRANCH  15  17
ENDBRANCH   8  13
BRANCH   7  27
HETATM   27  O2  UNL     1      51.483   3.641 101.781  1.00  0.00    -0.358 OA
HETATM   28  H7  UNL     1      51.301   4.526 102.151  1.00  0.00     0.217 HD
ENDBRANCH   7  27
BRANCH   3  29
HETATM   29  O3  UNL     1      52.489   3.786  99.451  1.00  0.00    -0.355 OA
HETATM   30  C11 UNL     1      53.685   3.028  99.296  1.00  0.00     0.210 C 
ENDBRANCH   3  29
TORSDOF 5
ENDMDL
