MODEL 1
REMARK VINA RESULT:      -9.4      0.000      0.000
REMARK  5 active torsions:
REMARK  status: ('A' for Active; 'I' for Inactive)
REMARK    1  A    between atoms: C5_5  and  C12_13 
REMARK    2  A    between atoms: C9_9  and  O1_11 
REMARK    3  A    between atoms: C13_15  and  C15_18 
REMARK    4  A    between atoms: C14_17  and  C22_27 
REMARK    5  A    between atoms: C18_21  and  S1_24 
ROOT
HETATM    1  C12 UNL     1      49.117   0.336 106.151  1.00  0.00     0.074 A 
HETATM    2  N1  UNL     1      49.298   0.607 104.813  1.00  0.00    -0.338 N 
HETATM    3  C13 UNL     1      50.042   1.755 104.674  1.00  0.00     0.139 A 
HETATM    4  N2  UNL     1      50.346   2.226 105.868  1.00  0.00    -0.227 NA
HETATM    5  C14 UNL     1      49.771   1.377 106.790  1.00  0.00     0.097 A 
HETATM    6  H10 UNL     1      48.976   0.022 104.058  1.00  0.00     0.167 HD
ENDROOT
BRANCH   1   7
HETATM    7  C5  UNL     1      48.429  -0.863 106.609  1.00  0.00    -0.006 A 
HETATM    8  C4  UNL     1      47.159  -0.773 107.185  1.00  0.00     0.014 A 
HETATM    9  C3  UNL     1      46.501  -1.922 107.628  1.00  0.00     0.013 A 
HETATM   10  C2  UNL     1      47.101  -3.184 107.504  1.00  0.00    -0.023 A 
HETATM   11  C1  UNL     1      48.383  -3.286 106.924  1.00  0.00    -0.025 A 
HETATM   12  C10 UNL     1      46.452  -4.350 107.944  1.00  0.00     0.049 A 
HETATM   13  C6  UNL     1      49.035  -2.120 106.484  1.00  0.00     0.026 A 
HETATM   14  C7  UNL     1      48.976  -4.551 106.798  1.00  0.00     0.015 A 
HETATM   15  C8  UNL     1      48.317  -5.703 107.240  1.00  0.00     0.037 A 
HETATM   16  C9  UNL     1      47.052  -5.607 107.815  1.00  0.00     0.069 A 
BRANCH  16  17
HETATM   17  O1  UNL     1      46.301  -6.648 108.289  1.00  0.00    -0.356 OA
HETATM   18  C11 UNL     1      44.895  -6.444 108.370  1.00  0.00     0.210 C 
ENDBRANCH  16  17
ENDBRANCH   1   7
BRANCH   5  19
HETATM   19  C22 UNL     1      49.902   1.606 108.219  1.00  0.00    -0.002 A 
HETATM   20  C23 UNL     1      50.252   2.880 108.676  1.00  0.00     0.033 A 
HETATM   21  C24 UNL     1      50.370   3.087 110.038  1.00  0.00     0.117 A 
HETATM   22  N3  UNL     1      50.162   2.126 110.964  1.00  0.00    -0.273 NA
HETATM   23  C25 UNL     1      49.806   0.910 110.503  1.00  0.00     0.117 A 
HETATM   24  C26 UNL     1      49.660   0.604 109.160  1.00  0.00     0.033 A 
ENDBRANCH   5  19
BRANCH   3  25
HETATM   25  C15 UNL     1      50.444   2.343 103.391  1.00  0.00     0.010 A 
HETATM   26  C16 UNL     1      49.799   3.453 102.828  1.00  0.00     0.017 A 
HETATM   27  C17 UNL     1      50.222   3.981 101.602  1.00  0.00     0.022 A 
HETATM   28  C18 UNL     1      51.299   3.412 100.918  1.00  0.00     0.031 A 
HETATM   29  C19 UNL     1      51.944   2.302 101.465  1.00  0.00     0.022 A 
HETATM   30  C20 UNL     1      51.522   1.778 102.690  1.00  0.00     0.017 A 
BRANCH  28  31
HETATM   31  S1  UNL     1      51.849   4.083  99.332  1.00  0.00     0.045 S 
HETATM   32  C21 UNL     1      53.326   3.050  99.148  1.00  0.00     0.133 C 
HETATM   33  O2  UNL     1      52.318   5.480  99.616  1.00  0.00    -0.253 OA
ENDBRANCH  28  31
ENDBRANCH   3  25
TORSDOF 5
ENDMDL
