MODEL 1
REMARK VINA RESULT:      -8.6      0.000      0.000
REMARK  0 active torsions:
REMARK  status: ('A' for Active; 'I' for Inactive)
ROOT
HETATM    1  C1  UNL     1      48.267   0.692 102.136  1.00  0.00     0.079 C 
HETATM    2  C2  UNL     1      49.329   1.453 101.388  1.00  0.00     0.127 C 
HETATM    3  C3  UNL     1      49.899   2.681 102.060  1.00  0.00     0.091 C 
HETATM    4  C4  UNL     1      49.576   2.701 103.557  1.00  0.00     0.071 C 
HETATM    5  C5  UNL     1      49.717   1.301 104.227  1.00  0.00    -0.029 C 
HETATM    6  C6  UNL     1      48.688   0.334 103.562  1.00  0.00     0.017 C 
HETATM    7  C7  UNL     1      50.415   3.741 104.288  1.00  0.00     0.132 C 
HETATM    8  C8  UNL     1      50.174   3.866 105.772  1.00  0.00     0.084 C 
HETATM    9  C9  UNL     1      50.314   2.505 106.458  1.00  0.00     0.002 C 
HETATM   10  C10 UNL     1      49.406   1.435 105.767  1.00  0.00    -0.001 C 
HETATM   11  C11 UNL     1      49.923   2.586 107.937  1.00  0.00     0.006 C 
HETATM   12  C12 UNL     1      50.125   1.239 108.661  1.00  0.00     0.021 C 
HETATM   13  C13 UNL     1      49.155   0.232 108.049  1.00  0.00     0.018 C 
HETATM   14  C14 UNL     1      49.401   0.084 106.537  1.00  0.00     0.007 C 
HETATM   15  C15 UNL     1      50.601   3.604 108.848  1.00  0.00     0.013 C 
HETATM   16  C16 UNL     1      50.118   3.184 110.245  1.00  0.00     0.079 C 
HETATM   17  C17 UNL     1      49.823   1.702 110.073  1.00  0.00     0.135 C 
HETATM   18  C18 UNL     1      51.566   0.694 108.676  1.00  0.00     0.024 C 
HETATM   19  C19 UNL     1      51.142   0.730 103.996  1.00  0.00     0.016 C 
HETATM   20  O1  UNL     1      49.666   1.131 100.250  1.00  0.00    -0.298 OA
HETATM   21  O2  UNL     1      51.186   4.501 103.705  1.00  0.00    -0.298 OA
HETATM   22  O3  UNL     1      49.414   0.979 110.971  1.00  0.00    -0.297 OA
ENDROOT
TORSDOF 0
ENDMDL
