MODEL 1
REMARK VINA RESULT:      -7.7      0.000      0.000
REMARK  2 active torsions:
REMARK  status: ('A' for Active; 'I' for Inactive)
REMARK    1  A    between atoms: C2_2  and  O2_21 
REMARK    2  A    between atoms: C3_4  and  C10_12 
ROOT
HETATM    1  C1  UNL     1      51.119   3.033 107.777  1.00  0.00     0.272 C 
HETATM    2  C2  UNL     1      50.256   3.811 106.750  1.00  0.00     0.335 C 
HETATM    3  N1  UNL     1      50.543   3.291 105.421  1.00  0.00    -0.247 NA
HETATM    4  C3  UNL     1      50.157   2.099 105.115  1.00  0.00     0.079 C 
HETATM    5  C4  UNL     1      49.432   1.158 106.022  1.00  0.00     0.022 A 
HETATM    6  C5  UNL     1      49.827   0.954 107.356  1.00  0.00     0.047 A 
HETATM    7  N2  UNL     1      50.787   1.725 108.026  1.00  0.00    -0.323 N 
HETATM    8  C6  UNL     1      48.409   0.366 105.470  1.00  0.00     0.040 A 
HETATM    9  C7  UNL     1      47.830  -0.651 106.224  1.00  0.00     0.035 A 
HETATM   10  C8  UNL     1      48.262  -0.900 107.522  1.00  0.00     0.026 A 
HETATM   11  C9  UNL     1      49.263  -0.103 108.083  1.00  0.00     0.032 A 
HETATM   12  O1  UNL     1      52.035   3.554 108.418  1.00  0.00    -0.268 OA
HETATM   13 CL2  UNL     1      46.590  -1.624 105.535  1.00  0.00    -0.084 Cl
HETATM   14  H6  UNL     1      51.231   1.356 108.857  1.00  0.00     0.169 HD
ENDROOT
BRANCH   4  15
HETATM   15  C10 UNL     1      50.456   1.654 103.720  1.00  0.00     0.015 A 
HETATM   16  C11 UNL     1      51.499   0.730 103.557  1.00  0.00     0.015 A 
HETATM   17  C12 UNL     1      51.847   0.282 102.283  1.00  0.00     0.001 A 
HETATM   18  C13 UNL     1      51.150   0.744 101.169  1.00  0.00     0.002 A 
HETATM   19  C14 UNL     1      50.096   1.647 101.327  1.00  0.00     0.025 A 
HETATM   20  C15 UNL     1      49.739   2.100 102.601  1.00  0.00     0.046 A 
HETATM   21 CL1  UNL     1      48.383   3.163 102.715  1.00  0.00    -0.083 Cl
ENDBRANCH   4  15
BRANCH   2  22
HETATM   22  O2  UNL     1      50.510   5.203 106.844  1.00  0.00    -0.367 OA
HETATM   23  H10 UNL     1      51.481   5.259 106.867  1.00  0.00     0.212 HD
ENDBRANCH   2  22
TORSDOF 2
ENDMDL
