MODEL 1
REMARK VINA RESULT:      -7.1      0.000      0.000
REMARK  2 active torsions:
REMARK  status: ('A' for Active; 'I' for Inactive)
REMARK    1  A    between atoms: C8_9  and  C9_11 
REMARK    2  A    between atoms: C9_11  and  C10_12 
ROOT
HETATM    1  C1  UNL     1      50.374   1.353 107.534  1.00  0.00     0.025 A 
HETATM    2  C2  UNL     1      50.589   1.857 108.796  1.00  0.00     0.034 A 
HETATM    3  C3  UNL     1      49.959   1.192 109.823  1.00  0.00     0.025 A 
HETATM    4  C4  UNL     1      49.168   0.096 109.611  1.00  0.00     0.017 A 
HETATM    5  C5  UNL     1      48.945  -0.426 108.326  1.00  0.00     0.012 A 
HETATM    6  C6  UNL     1      49.574   0.242 107.314  1.00  0.00     0.017 A 
HETATM    7 CL1  UNL     1      51.599   3.259 109.063  1.00  0.00    -0.084 Cl
HETATM    8  C7  UNL     1      48.125  -1.601 108.197  1.00  0.00     0.181 A 
HETATM    9  C8  UNL     1      47.720  -2.185 106.914  1.00  0.00     0.154 A 
HETATM   10  O1  UNL     1      47.724  -2.181 109.248  1.00  0.00    -0.290 OA
HETATM   11  C12 UNL     1      46.504  -0.255 106.163  1.00  0.00     0.117 C 
HETATM   12  N1  UNL     1      47.536  -1.193 105.931  1.00  0.00    -0.401 N 
HETATM   13  C13 UNL     1      47.606  -1.568 104.569  1.00  0.00     0.117 C 
HETATM   14  C14 UNL     1      46.779  -0.539 103.805  1.00  0.00     0.021 C 
HETATM   15  C15 UNL     1      45.771  -0.063 104.854  1.00  0.00     0.021 C 
HETATM   16 CL2  UNL     1      48.781  -1.011 107.244  1.00  0.00    -0.145 Cl
HETATM   17  H21 UNL     1      47.933  -1.728 106.426  1.00  0.00     0.145 HD
ENDROOT
BRANCH   9  18
HETATM   18  C9  UNL     1      48.659  -3.297 106.494  1.00  0.00     0.033 C 
BRANCH  18  19
HETATM   19  C10 UNL     1      48.026  -4.654 106.822  1.00  0.00    -0.002 C 
HETATM   20  C11 UNL     1      46.527  -4.581 106.565  1.00  0.00     0.005 C 
ENDBRANCH  18  19
ENDBRANCH   9  18
TORSDOF 2
ENDMDL
