MODEL 1
REMARK VINA RESULT:      -7.8      0.000      0.000
REMARK  5 active torsions:
REMARK  status: ('A' for Active; 'I' for Inactive)
REMARK    1  A    between atoms: C1_1  and  O4_22 
REMARK    2  A    between atoms: C7_8  and  O2_20 
REMARK    3  A    between atoms: C13_14  and  O3_21 
REMARK    4  A    between atoms: N1_17  and  C17_19 
REMARK    5  A    between atoms: C17_19  and  C18_23 
ROOT
HETATM    1  C1  UNL     1      51.541   2.666 102.087  1.00  0.00     0.148 C 
HETATM    2  C2  UNL     1      50.039   2.946 102.345  1.00  0.00     0.174 C 
HETATM    3  C3  UNL     1      51.866   1.182 101.966  1.00  0.00     0.037 C 
HETATM    4  C4  UNL     1      49.364   1.971 103.324  1.00  0.00     0.054 C 
HETATM    5  O1  UNL     1      49.943   4.288 102.952  1.00  0.00    -0.339 OA
HETATM    6  C5  UNL     1      51.389   0.412 103.202  1.00  0.00     0.044 C 
HETATM    7  C6  UNL     1      49.778   2.682 104.573  1.00  0.00    -0.001 A 
HETATM    8  C7  UNL     1      49.862   0.525 103.353  1.00  0.00     0.103 C 
HETATM    9  C8  UNL     1      47.817   2.003 103.225  1.00  0.00     0.050 C 
HETATM   10  C9  UNL     1      50.015   4.017 104.302  1.00  0.00     0.110 A 
HETATM   11  C10 UNL     1      49.974   2.116 105.821  1.00  0.00    -0.046 A 
HETATM   12  C11 UNL     1      49.291  -0.082 104.693  1.00  0.00     0.262 C 
HETATM   13  C12 UNL     1      47.139   0.706 103.708  1.00  0.00     0.274 C 
HETATM   14  C13 UNL     1      50.358   4.881 105.316  1.00  0.00     0.099 A 
HETATM   15  C14 UNL     1      49.898   0.616 105.956  1.00  0.00     0.078 C 
HETATM   16  C15 UNL     1      50.331   2.983 106.856  1.00  0.00     0.011 A 
HETATM   17  N1  UNL     1      47.810   0.054 104.834  1.00  0.00     0.096 N 
HETATM   18  C16 UNL     1      50.501   4.363 106.609  1.00  0.00     0.040 A 
ENDROOT
BRANCH  17  19
HETATM   19  C17 UNL     1      47.181  -1.211 105.230  1.00  0.00     0.277 C 
BRANCH  19  20
HETATM   20  C18 UNL     1      46.813  -1.206 106.685  1.00  0.00     0.014 A 
HETATM   21  C19 UNL     1      46.672  -2.503 107.447  1.00  0.00     0.007 A 
HETATM   22  C20 UNL     1      47.827  -1.586 107.737  1.00  0.00     0.007 A 
ENDBRANCH  19  20
ENDBRANCH  17  19
BRANCH   8  23
HETATM   23  O2  UNL     1      49.328  -0.184 102.216  1.00  0.00    -0.386 OA
HETATM   24  H19 UNL     1      48.384   0.038 102.144  1.00  0.00     0.210 HD
ENDBRANCH   8  23
BRANCH   1  25
HETATM   25  O4  UNL     1      51.957   3.330 100.887  1.00  0.00    -0.393 OA
HETATM   26  H21 UNL     1      51.188   3.300 100.286  1.00  0.00     0.210 HD
ENDBRANCH   1  25
BRANCH  14  27
HETATM   27  O3  UNL     1      50.583   6.195 105.046  1.00  0.00    -0.358 OA
HETATM   28  H20 UNL     1      49.957   6.731 105.559  1.00  0.00     0.217 HD
ENDBRANCH  14  27
TORSDOF 5
ENDMDL
