MODEL 1
REMARK VINA RESULT:      -7.6      0.000      0.000
REMARK  10 active torsions:
REMARK  status: ('A' for Active; 'I' for Inactive)
REMARK    1  A    between atoms: C2_2  and  C6_8 
REMARK    2  A    between atoms: N2_4  and  C4_6 
REMARK    3  A    between atoms: C3_5  and  C15_18 
REMARK    4  A    between atoms: C4_6  and  C5_7 
REMARK    5  A    between atoms: C5_7  and  C12_15 
REMARK    6  A    between atoms: C12_15  and  C13_16 
REMARK    7  A    between atoms: C13_16  and  C14_17 
REMARK       I    between atoms: C15_18  and  N3_19 
REMARK    8  A    between atoms: N3_19  and  C16_21 
REMARK    9  A    between atoms: C16_21  and  C17_22 
REMARK   10  A    between atoms: C16_21  and  C18_23 
REMARK       I    between atoms: C17_22  and  N4_28 
ROOT
HETATM    1  C1  UNL     1      48.728  -0.396 106.169  1.00  0.00     0.071 A 
HETATM    2  C2  UNL     1      49.555   0.719 106.460  1.00  0.00     0.089 A 
HETATM    3  N1  UNL     1      50.092   1.194 105.325  1.00  0.00    -0.171 NA
HETATM    4  N2  UNL     1      49.650   0.374 104.354  1.00  0.00    -0.264 N 
HETATM    5  C3  UNL     1      48.758  -0.569 104.796  1.00  0.00     0.122 A 
ENDROOT
BRANCH   5   6
HETATM    6  C15 UNL     1      48.065  -1.572 104.034  1.00  0.00     0.270 C 
HETATM    7  N3  UNL     1      47.197  -1.086 103.084  1.00  0.00    -0.342 N 
HETATM    8  H16 UNL     1      47.220  -0.101 102.863  1.00  0.00     0.163 HD
HETATM    9  O1  UNL     1      48.189  -2.774 104.245  1.00  0.00    -0.266 OA
BRANCH   7  10
HETATM   10  C16 UNL     1      46.558  -1.975 102.113  1.00  0.00     0.184 C 
BRANCH  10  11
HETATM   11  C17 UNL     1      47.087  -1.548 100.727  1.00  0.00     0.239 C 
HETATM   12  O2  UNL     1      47.112  -0.381 100.340  1.00  0.00    -0.271 OA
HETATM   13  N4  UNL     1      47.510  -2.555  99.909  1.00  0.00    -0.368 N 
HETATM   14  H27 UNL     1      47.960  -2.262  99.051  1.00  0.00     0.159 HD
HETATM   15  H28 UNL     1      47.837  -3.428 100.308  1.00  0.00     0.159 HD
ENDBRANCH  10  11
BRANCH  10  16
HETATM   16  C18 UNL     1      45.002  -1.958 102.217  1.00  0.00    -0.022 C 
HETATM   17  C19 UNL     1      44.317  -1.865 100.840  1.00  0.00     0.017 C 
HETATM   18  C20 UNL     1      44.560  -0.745 103.063  1.00  0.00     0.017 C 
HETATM   19  C21 UNL     1      44.497  -3.232 102.925  1.00  0.00     0.017 C 
ENDBRANCH  10  16
ENDBRANCH   7  10
ENDBRANCH   5   6
BRANCH   4  20
HETATM   20  C4  UNL     1      50.227   0.522 103.026  1.00  0.00     0.152 C 
BRANCH  20  21
HETATM   21  C5  UNL     1      51.749   0.383 103.039  1.00  0.00     0.022 C 
BRANCH  21  22
HETATM   22  C12 UNL     1      52.482   1.658 102.619  1.00  0.00     0.004 C 
BRANCH  22  23
HETATM   23  C13 UNL     1      51.673   2.546 101.677  1.00  0.00     0.031 C 
BRANCH  23  24
HETATM   24  C14 UNL     1      52.114   2.379 100.233  1.00  0.00     0.222 C 
HETATM   25  F2  UNL     1      53.406   2.787 100.124  1.00  0.00    -0.255 F 
ENDBRANCH  23  24
ENDBRANCH  22  23
ENDBRANCH  21  22
ENDBRANCH  20  21
ENDBRANCH   4  20
BRANCH   2  26
HETATM   26  C6  UNL     1      49.840   1.333 107.762  1.00  0.00    -0.005 A 
HETATM   27  C7  UNL     1      49.691   0.589 108.947  1.00  0.00     0.017 A 
HETATM   28  C8  UNL     1      49.961   1.161 110.193  1.00  0.00     0.043 A 
HETATM   29  C9  UNL     1      50.382   2.482 110.263  1.00  0.00     0.116 A 
HETATM   30  C10 UNL     1      50.536   3.241 109.110  1.00  0.00     0.043 A 
HETATM   31  F1  UNL     1      50.641   3.032 111.454  1.00  0.00    -0.206 F 
HETATM   32  C11 UNL     1      50.266   2.669 107.862  1.00  0.00     0.017 A 
ENDBRANCH   2  26
TORSDOF 10
ENDMDL
