MODEL 1
REMARK VINA RESULT:      -7.5      0.000      0.000
REMARK  3 active torsions:
REMARK  status: ('A' for Active; 'I' for Inactive)
REMARK    1  A    between atoms: C1_1  and  O4_20 
REMARK    2  A    between atoms: C8_8  and  O3_12 
REMARK    3  A    between atoms: O3_12  and  C10_13 
ROOT
HETATM    1  C1  UNL     1      50.685   2.320 110.443  1.00  0.00     0.068 A 
HETATM    2  C2  UNL     1      50.257   1.038 110.100  1.00  0.00     0.037 A 
HETATM    3  C3  UNL     1      49.940   0.757 108.769  1.00  0.00     0.021 A 
HETATM    4  C4  UNL     1      50.056   1.760 107.799  1.00  0.00     0.051 A 
HETATM    5  C5  UNL     1      50.484   3.034 108.155  1.00  0.00     0.091 A 
HETATM    6  C6  UNL     1      50.801   3.319 109.481  1.00  0.00     0.074 A 
HETATM    7  C7  UNL     1      49.728   1.489 106.391  1.00  0.00     0.220 A 
HETATM    8  C8  UNL     1      49.878   2.614 105.413  1.00  0.00     0.149 A 
HETATM    9  C9  UNL     1      50.303   3.779 105.928  1.00  0.00     0.184 A 
HETATM   10  O1  UNL     1      50.612   4.047 107.244  1.00  0.00    -0.319 OA
HETATM   11  O2  UNL     1      49.349   0.373 106.049  1.00  0.00    -0.284 OA
ENDROOT
BRANCH   8  12
HETATM   12  O3  UNL     1      49.551   2.267 104.124  1.00  0.00    -0.305 OA
BRANCH  12  13
HETATM   13  C10 UNL     1      50.176   2.531 102.938  1.00  0.00     0.076 A 
HETATM   14  C11 UNL     1      51.347   1.770 102.781  1.00  0.00     0.038 A 
HETATM   15  C12 UNL     1      52.149   1.878 101.642  1.00  0.00     0.021 A 
HETATM   16  C13 UNL     1      51.780   2.760 100.634  1.00  0.00     0.006 A 
HETATM   17  C14 UNL     1      50.623   3.522 100.769  1.00  0.00     0.021 A 
HETATM   18  I1  UNL     1      52.951   2.941  98.930  1.00  0.00    -0.045 I 
HETATM   19  C15 UNL     1      49.825   3.408 101.919  1.00  0.00     0.038 A 
ENDBRANCH  12  13
ENDBRANCH   8  12
BRANCH   1  20
HETATM   20  O4  UNL     1      51.004   2.639 111.729  1.00  0.00    -0.361 OA
HETATM   21  H9  UNL     1      51.178   1.821 112.224  1.00  0.00     0.217 HD
ENDBRANCH   1  20
TORSDOF 3
ENDMDL
