MODEL 1
REMARK VINA RESULT:      -7.6      0.000      0.000
REMARK  6 active torsions:
REMARK  status: ('A' for Active; 'I' for Inactive)
REMARK    1  A    between atoms: C4_4  and  C8_10 
REMARK    2  A    between atoms: C8_10  and  C9_12 
REMARK    3  A    between atoms: C10_13  and  O2_18 
REMARK    4  A    between atoms: O2_18  and  C14_19 
REMARK    5  A    between atoms: C14_19  and  C15_20 
REMARK    6  A    between atoms: C15_20  and  C16_21 
ROOT
HETATM    1  C9  UNL     1      50.394   3.183 106.593  1.00  0.00     0.067 A 
HETATM    2  C10 UNL     1      49.795   2.104 107.257  1.00  0.00     0.100 A 
HETATM    3  C11 UNL     1      50.134   1.910 108.606  1.00  0.00     0.065 A 
HETATM    4  C12 UNL     1      51.059   2.772 109.174  1.00  0.00     0.158 A 
HETATM    5  N1  UNL     1      51.682   3.811 108.588  1.00  0.00    -0.240 NA
HETATM    6  C13 UNL     1      51.298   3.982 107.294  1.00  0.00     0.137 A 
HETATM    7  C18 UNL     1      49.795   1.026 109.653  1.00  0.00     0.157 A 
HETATM    8  N2  UNL     1      50.456   1.287 110.789  1.00  0.00    -0.184 NA
HETATM    9  N3  UNL     1      51.209   2.361 110.467  1.00  0.00    -0.261 N 
HETATM   10  H17 UNL     1      51.808   2.774 111.171  1.00  0.00     0.191 HD
ENDROOT
BRANCH   1  11
HETATM   11  C8  UNL     1      50.074   3.510 105.186  1.00  0.00     0.202 C 
HETATM   12  O1  UNL     1      49.536   4.573 104.897  1.00  0.00    -0.286 OA
BRANCH  11  13
HETATM   13  C4  UNL     1      50.396   2.554 104.111  1.00  0.00     0.092 A 
HETATM   14  C3  UNL     1      49.386   1.887 103.423  1.00  0.00     0.134 A 
HETATM   15  C2  UNL     1      49.689   0.998 102.392  1.00  0.00     0.050 A 
HETATM   16  F2  UNL     1      48.098   2.095 103.727  1.00  0.00    -0.205 F 
HETATM   17  C1  UNL     1      51.022   0.759 102.036  1.00  0.00    -0.056 A 
HETATM   18  C6  UNL     1      52.038   1.445 102.717  1.00  0.00     0.050 A 
HETATM   19  C7  UNL     1      51.357  -0.167 100.905  1.00  0.00     0.048 C 
HETATM   20  C5  UNL     1      51.721   2.333 103.746  1.00  0.00     0.134 A 
HETATM   21  F1  UNL     1      52.726   2.934 104.396  1.00  0.00    -0.205 F 
ENDBRANCH  11  13
ENDBRANCH   1  11
BRANCH   2  22
HETATM   22  O2  UNL     1      48.872   1.287 106.659  1.00  0.00    -0.349 OA
BRANCH  22  23
HETATM   23  C14 UNL     1      49.407  -0.029 106.464  1.00  0.00     0.175 C 
BRANCH  23  24
HETATM   24  C15 UNL     1      48.351  -0.855 105.735  1.00  0.00     0.026 C 
BRANCH  24  25
HETATM   25  C16 UNL     1      46.918  -0.524 106.150  1.00  0.00    -0.002 C 
HETATM   26  C17 UNL     1      46.029  -0.115 104.986  1.00  0.00     0.005 C 
ENDBRANCH  24  25
ENDBRANCH  23  24
ENDBRANCH  22  23
ENDBRANCH   2  22
TORSDOF 6
ENDMDL
