MODEL 1
REMARK VINA RESULT:      -8.5      0.000      0.000
REMARK  5 active torsions:
REMARK  status: ('A' for Active; 'I' for Inactive)
REMARK    1  A    between atoms: N1_5  and  C6_7 
REMARK    2  A    between atoms: C6_7  and  C7_8 
REMARK    3  A    between atoms: C7_8  and  C14_20 
REMARK    4  A    between atoms: N2_9  and  S1_10 
REMARK    5  A    between atoms: S1_10  and  C8_11 
ROOT
HETATM    1  C1  UNL     1      52.412   2.504 103.550  1.00  0.00     0.020 C 
HETATM    2  C2  UNL     1      52.387   1.518 102.391  1.00  0.00     0.009 C 
HETATM    3  C3  UNL     1      51.648   0.252 102.798  1.00  0.00     0.079 C 
HETATM    4  C4  UNL     1      50.264   0.556 103.388  1.00  0.00     0.115 C 
HETATM    5  N1  UNL     1      50.227   1.627 104.274  1.00  0.00    -0.368 N 
HETATM    6  C5  UNL     1      50.992   2.843 103.980  1.00  0.00     0.124 C 
HETATM    7  N2  UNL     1      49.356  -0.263 102.987  1.00  0.00    -0.147 NA
ENDROOT
BRANCH   5   8
HETATM    8  C6  UNL     1      49.589   1.567 105.598  1.00  0.00     0.128 C 
BRANCH   8   9
HETATM    9  C7  UNL     1      50.132   2.666 106.520  1.00  0.00     0.058 C 
BRANCH   9  10
HETATM   10  C14 UNL     1      50.059   2.269 107.973  1.00  0.00    -0.057 A 
HETATM   11  C15 UNL     1      50.399   3.189 108.974  1.00  0.00     0.007 A 
HETATM   12  C16 UNL     1      50.353   2.819 110.319  1.00  0.00     0.001 A 
HETATM   13  C17 UNL     1      49.969   1.528 110.675  1.00  0.00     0.000 A 
HETATM   14  C18 UNL     1      49.632   0.605 109.687  1.00  0.00     0.001 A 
HETATM   15  C19 UNL     1      49.679   0.972 108.341  1.00  0.00     0.007 A 
ENDBRANCH   9  10
ENDBRANCH   8   9
ENDBRANCH   5   8
BRANCH   7  16
HETATM   16  S1  UNL     1      47.796  -0.134 103.355  1.00  0.00     0.284 S 
HETATM   17  O1  UNL     1      46.993  -0.953 102.466  1.00  0.00    -0.198 OA
HETATM   18  O2  UNL     1      47.456   1.259 103.582  1.00  0.00    -0.198 OA
BRANCH  16  19
HETATM   19  C8  UNL     1      47.721  -0.916 104.962  1.00  0.00     0.081 A 
HETATM   20  C9  UNL     1      48.630  -1.925 105.296  1.00  0.00     0.027 A 
HETATM   21  C10 UNL     1      48.548  -2.534 106.549  1.00  0.00     0.025 A 
HETATM   22  C11 UNL     1      47.562  -2.135 107.454  1.00  0.00     0.034 A 
HETATM   23  C12 UNL     1      46.652  -1.132 107.117  1.00  0.00     0.025 A 
HETATM   24 CL1  UNL     1      47.467  -2.888 108.998  1.00  0.00    -0.084 Cl
HETATM   25  C13 UNL     1      46.728  -0.518 105.864  1.00  0.00     0.027 A 
ENDBRANCH  16  19
ENDBRANCH   7  16
TORSDOF 5
ENDMDL
