MODEL 1
REMARK VINA RESULT:      -6.6      0.000      0.000
REMARK  7 active torsions:
REMARK  status: ('A' for Active; 'I' for Inactive)
REMARK    1  A    between atoms: C2_2  and  O2_15 
REMARK    2  A    between atoms: C5_5  and  C7_7 
REMARK    3  A    between atoms: C7_7  and  C8_8 
REMARK    4  A    between atoms: C8_8  and  C9_10 
REMARK    5  A    between atoms: O2_15  and  C12_16 
REMARK    6  A    between atoms: C12_16  and  C13_17 
REMARK    7  A    between atoms: C13_17  and  O3_18 
ROOT
HETATM    1  C1  UNL     1      50.143   3.450 105.889  1.00  0.00     0.090 A 
HETATM    2  C2  UNL     1      50.087   2.590 107.009  1.00  0.00     0.092 A 
HETATM    3  C3  UNL     1      49.816   1.232 106.819  1.00  0.00     0.039 A 
HETATM    4  C4  UNL     1      49.594   0.734 105.534  1.00  0.00     0.020 A 
HETATM    5  C5  UNL     1      49.629   1.593 104.429  1.00  0.00     0.038 A 
HETATM    6  C6  UNL     1      49.926   2.952 104.590  1.00  0.00     0.072 A 
HETATM    7 CL1  UNL     1      50.055   3.990 103.205  1.00  0.00    -0.081 Cl
HETATM    8 CL2  UNL     1      50.486   5.138 106.144  1.00  0.00    -0.080 Cl
ENDROOT
BRANCH   2   9
HETATM    9  O2  UNL     1      50.305   3.163 108.236  1.00  0.00    -0.339 OA
BRANCH   9  10
HETATM   10  C12 UNL     1      51.420   2.719 108.999  1.00  0.00     0.285 C 
BRANCH  10  11
HETATM   11  C13 UNL     1      50.963   1.977 110.240  1.00  0.00     0.164 C 
HETATM   12  O4  UNL     1      50.615   0.806 110.282  1.00  0.00    -0.648 OA
BRANCH  11  13
HETATM   13  O3  UNL     1      51.025   2.707 111.371  1.00  0.00    -0.775 OA
HETATM   14  H12 UNL     1      51.375   3.578 111.090  1.00  0.00     0.167 HD
ENDBRANCH  11  13
ENDBRANCH  10  11
ENDBRANCH   9  10
ENDBRANCH   2   9
BRANCH   5  15
HETATM   15  C7  UNL     1      49.394   0.980 103.110  1.00  0.00     0.189 C 
HETATM   16  O1  UNL     1      48.288   1.122 102.594  1.00  0.00    -0.287 OA
BRANCH  15  17
HETATM   17  C8  UNL     1      50.533   0.287 102.418  1.00  0.00    -0.017 C 
HETATM   18  C10 UNL     1      50.216  -0.333 101.266  1.00  0.00     0.023 C 
BRANCH  17  19
HETATM   19  C9  UNL     1      51.917   0.392 103.011  1.00  0.00     0.037 C 
HETATM   20  C11 UNL     1      52.738   1.613 102.607  1.00  0.00     0.010 C 
ENDBRANCH  17  19
ENDBRANCH  15  17
ENDBRANCH   5  15
TORSDOF 7
ENDMDL
