MODEL 1
REMARK VINA RESULT:      -7.8      0.000      0.000
REMARK  7 active torsions:
REMARK  status: ('A' for Active; 'I' for Inactive)
REMARK    1  A    between atoms: C8_10  and  O3_13 
REMARK    2  A    between atoms: O3_13  and  C11_14 
REMARK    3  A    between atoms: C12_15  and  O6_22 
REMARK    4  A    between atoms: C13_16  and  O7_23 
REMARK    5  A    between atoms: C14_17  and  O5_21 
REMARK    6  A    between atoms: C15_18  and  C16_20 
REMARK    7  A    between atoms: C16_20  and  O9_25 
ROOT
HETATM    1  C11 UNL     1      49.673   2.388 103.643  1.00  0.00     0.298 C 
HETATM    2  C12 UNL     1      48.909   3.382 102.752  1.00  0.00     0.205 C 
HETATM    3  C13 UNL     1      47.871   2.632 101.909  1.00  0.00     0.183 C 
HETATM    4  C14 UNL     1      48.352   1.230 101.507  1.00  0.00     0.189 C 
HETATM    5  C15 UNL     1      49.887   1.156 101.570  1.00  0.00     0.253 C 
HETATM    6  O4  UNL     1      50.423   1.455 102.865  1.00  0.00    -0.340 OA
ENDROOT
BRANCH   1   7
HETATM    7  O3  UNL     1      50.553   3.195 104.458  1.00  0.00    -0.318 OA
BRANCH   7   8
HETATM    8  C8  UNL     1      50.389   2.912 105.785  1.00  0.00     0.074 A 
HETATM    9  C7  UNL     1      49.811   1.709 106.168  1.00  0.00     0.075 A 
HETATM   10  C1  UNL     1      49.704   1.418 107.528  1.00  0.00     0.092 A 
HETATM   11  C2  UNL     1      50.166   2.294 108.516  1.00  0.00     0.004 A 
HETATM   12  O1  UNL     1      49.114   0.183 107.858  1.00  0.00    -0.275 OA
HETATM   13  C3  UNL     1      50.012   1.911 109.927  1.00  0.00    -0.043 A 
HETATM   14  C10 UNL     1      50.762   3.493 108.102  1.00  0.00     0.017 A 
HETATM   15  C4  UNL     1      49.445   0.728 110.205  1.00  0.00     0.090 A 
HETATM   16  C6  UNL     1      50.482   2.827 111.017  1.00  0.00     0.049 C 
HETATM   17  C5  UNL     1      48.966  -0.209 109.177  1.00  0.00     0.288 A 
HETATM   18  O2  UNL     1      48.468  -1.283 109.494  1.00  0.00    -0.260 OA
HETATM   19  C9  UNL     1      50.882   3.799 106.740  1.00  0.00     0.038 A 
ENDBRANCH   7   8
ENDBRANCH   1   7
BRANCH   2  20
HETATM   20  O6  UNL     1      48.235   4.403 103.505  1.00  0.00    -0.388 OA
HETATM   21  H14 UNL     1      48.935   4.876 103.996  1.00  0.00     0.210 HD
ENDBRANCH   2  20
BRANCH   3  22
HETATM   22  O7  UNL     1      47.576   3.407 100.740  1.00  0.00    -0.390 OA
HETATM   23  H15 UNL     1      46.819   2.964 100.310  1.00  0.00     0.210 HD
ENDBRANCH   3  22
BRANCH   5  24
HETATM   24  C16 UNL     1      50.374  -0.211 101.096  1.00  0.00     0.172 C 
HETATM   25  O8  UNL     1      49.771  -1.273 101.123  1.00  0.00    -0.648 OA
BRANCH  24  26
HETATM   26  O9  UNL     1      51.657  -0.191 100.668  1.00  0.00    -0.774 OA
HETATM   27  H16 UNL     1      52.037   0.576 101.150  1.00  0.00     0.167 HD
ENDBRANCH  24  26
ENDBRANCH   5  24
BRANCH   4  28
HETATM   28  O5  UNL     1      47.784   0.284 102.427  1.00  0.00    -0.390 OA
HETATM   29  H13 UNL     1      48.484   0.042 103.063  1.00  0.00     0.210 HD
ENDBRANCH   4  28
TORSDOF 7
ENDMDL
