MODEL 1
REMARK VINA RESULT:      -7.7      0.000      0.000
REMARK  4 active torsions:
REMARK  status: ('A' for Active; 'I' for Inactive)
REMARK    1  A    between atoms: C5_5  and  C7_9 
REMARK       I    between atoms: C7_9  and  N1_10 
REMARK    2  A    between atoms: N1_10  and  C8_12 
REMARK    3  A    between atoms: C8_12  and  C9_13 
REMARK    4  A    between atoms: C9_13  and  N2_19 
ROOT
HETATM    1  C7  UNL     1      50.569   3.703 104.889  1.00  0.00     0.251 C 
HETATM    2  N1  UNL     1      49.648   3.235 103.979  1.00  0.00    -0.354 N 
HETATM    3  O1  UNL     1      51.455   4.505 104.618  1.00  0.00    -0.268 OA
HETATM    4  H4  UNL     1      48.932   2.583 104.265  1.00  0.00     0.162 HD
ENDROOT
BRANCH   2   5
HETATM    5  C8  UNL     1      49.713   3.565 102.567  1.00  0.00     0.164 C 
BRANCH   5   6
HETATM    6  C9  UNL     1      50.186   2.440 101.550  1.00  0.00     0.174 C 
HETATM    7  C10 UNL     1      51.748   2.485 101.441  1.00  0.00     0.043 C 
HETATM    8  C11 UNL     1      52.525   1.781 102.557  1.00  0.00     0.003 C 
HETATM    9  C12 UNL     1      51.998   0.381 102.830  1.00  0.00     0.000 C 
HETATM   10  C13 UNL     1      50.513   0.403 103.150  1.00  0.00     0.003 C 
HETATM   11  C14 UNL     1      49.700   1.038 102.022  1.00  0.00     0.043 C 
BRANCH   6  12
HETATM   12  N2  UNL     1      49.614   2.800 100.190  1.00  0.00     0.091 N 
HETATM   13  C15 UNL     1      50.362   2.305  99.026  1.00  0.00     0.310 C 
HETATM   14  C16 UNL     1      48.202   2.425 100.000  1.00  0.00     0.310 C 
ENDBRANCH   6  12
ENDBRANCH   5   6
ENDBRANCH   2   5
BRANCH   1  15
HETATM   15  C5  UNL     1      50.422   3.216 106.287  1.00  0.00     0.033 A 
HETATM   16  C4  UNL     1      50.772   4.004 107.390  1.00  0.00     0.019 A 
HETATM   17  C3  UNL     1      50.612   3.500 108.684  1.00  0.00     0.026 A 
HETATM   18  C2  UNL     1      50.098   2.215 108.884  1.00  0.00     0.055 A 
HETATM   19  C1  UNL     1      49.732   1.432 107.782  1.00  0.00     0.056 A 
HETATM   20 CL2  UNL     1      49.932   1.660 110.512  1.00  0.00    -0.083 Cl
HETATM   21  C6  UNL     1      49.891   1.936 106.487  1.00  0.00     0.042 A 
HETATM   22 CL1  UNL     1      49.086  -0.160 107.953  1.00  0.00    -0.083 Cl
ENDBRANCH   1  15
TORSDOF 4
ENDMDL
