MODEL 1
REMARK VINA RESULT:      -7.1      0.000      0.000
REMARK  8 active torsions:
REMARK  status: ('A' for Active; 'I' for Inactive)
REMARK    1  A    between atoms: C1_1  and  O5_20 
REMARK    2  A    between atoms: C2_2  and  O4_19 
REMARK    3  A    between atoms: C3_3  and  O3_18 
REMARK    4  A    between atoms: C5_5  and  C7_7 
REMARK    5  A    between atoms: C8_8  and  C9_9 
REMARK    6  A    between atoms: C12_12  and  O1_15 
REMARK    7  A    between atoms: C13_13  and  O2_17 
REMARK    8  A    between atoms: C14_14  and  O6_22 
ROOT
HETATM    1  C7  UNL     1      49.000  -0.286 105.299  1.00  0.00     0.012 C 
HETATM    2  C8  UNL     1      49.227  -0.345 103.975  1.00  0.00     0.015 C 
ENDROOT
BRANCH   1   3
HETATM    3  C5  UNL     1      49.487   0.728 106.243  1.00  0.00    -0.031 A 
HETATM    4  C4  UNL     1      49.733   2.050 105.835  1.00  0.00     0.051 A 
HETATM    5  C3  UNL     1      50.238   2.998 106.731  1.00  0.00     0.105 A 
HETATM    6  C2  UNL     1      50.520   2.604 108.049  1.00  0.00     0.135 A 
HETATM    7  C1  UNL     1      50.249   1.296 108.473  1.00  0.00     0.105 A 
HETATM    8  C6  UNL     1      49.769   0.357 107.560  1.00  0.00     0.051 A 
BRANCH   5   9
HETATM    9  O3  UNL     1      50.527   4.300 106.410  1.00  0.00    -0.353 OA
HETATM   10  C18 UNL     1      50.134   4.747 105.118  1.00  0.00     0.210 C 
ENDBRANCH   5   9
BRANCH   6  11
HETATM   11  O4  UNL     1      51.038   3.528 108.926  1.00  0.00    -0.351 OA
HETATM   12  C17 UNL     1      52.449   3.343 109.037  1.00  0.00     0.210 C 
ENDBRANCH   6  11
BRANCH   7  13
HETATM   13  O5  UNL     1      50.487   0.830 109.739  1.00  0.00    -0.353 OA
HETATM   14  C16 UNL     1      49.498   1.259 110.676  1.00  0.00     0.210 C 
ENDBRANCH   7  13
ENDBRANCH   1   3
BRANCH   2  15
HETATM   15  C9  UNL     1      49.969   0.626 103.158  1.00  0.00    -0.000 A 
HETATM   16  C10 UNL     1      51.357   0.504 102.984  1.00  0.00     0.017 A 
HETATM   17  C11 UNL     1      52.075   1.433 102.212  1.00  0.00     0.040 A 
HETATM   18  C12 UNL     1      51.415   2.502 101.607  1.00  0.00     0.104 A 
HETATM   19  C13 UNL     1      50.036   2.627 101.793  1.00  0.00     0.133 A 
HETATM   20  C14 UNL     1      49.321   1.708 102.562  1.00  0.00     0.112 A 
BRANCH  18  21
HETATM   21  O1  UNL     1      51.986   3.477 100.831  1.00  0.00    -0.353 OA
HETATM   22  C15 UNL     1      52.775   3.029  99.730  1.00  0.00     0.210 C 
ENDBRANCH  18  21
BRANCH  19  23
HETATM   23  O2  UNL     1      49.345   3.665 101.213  1.00  0.00    -0.356 OA
HETATM   24  H10 UNL     1      49.090   4.237 101.962  1.00  0.00     0.218 HD
ENDBRANCH  19  23
BRANCH  20  25
HETATM   25  O6  UNL     1      47.971   1.890 102.708  1.00  0.00    -0.357 OA
HETATM   26  H14 UNL     1      47.571   1.097 102.301  1.00  0.00     0.217 HD
ENDBRANCH  20  25
ENDBRANCH   2  15
TORSDOF 8
ENDMDL
