MODEL 1
REMARK VINA RESULT:      -9.5      0.000      0.000
REMARK  4 active torsions:
REMARK  status: ('A' for Active; 'I' for Inactive)
REMARK    1  A    between atoms: C3_5  and  S1_7 
REMARK    2  A    between atoms: S1_7  and  C4_8 
REMARK    3  A    between atoms: C4_8  and  C5_9 
REMARK    4  A    between atoms: C4_8  and  C6_12 
REMARK       I    between atoms: C5_9  and  N4_11 
ROOT
HETATM    1  C4  UNL     1      48.954  -0.144 102.379  1.00  0.00     0.148 C 
ENDROOT
BRANCH   1   2
HETATM    2  S1  UNL     1      48.148  -1.334 103.529  1.00  0.00    -0.074 SA
BRANCH   2   3
HETATM    3  C3  UNL     1      48.562  -0.644 105.119  1.00  0.00     0.212 A 
HETATM    4  N2  UNL     1      48.345  -1.409 106.224  1.00  0.00    -0.122 NA
HETATM    5  N1  UNL     1      48.665  -0.967 107.446  1.00  0.00    -0.143 NA
HETATM    6  C2  UNL     1      49.219   0.268 107.504  1.00  0.00     0.137 A 
HETATM    7  C1  UNL     1      49.432   0.984 106.339  1.00  0.00     0.162 A 
HETATM    8  C21 UNL     1      49.680   1.056 108.591  1.00  0.00     0.025 A 
HETATM    9  N3  UNL     1      49.142   0.577 105.093  1.00  0.00    -0.201 NA
HETATM   10  N5  UNL     1      49.987   2.182 106.680  1.00  0.00    -0.338 N 
HETATM   11  C20 UNL     1      50.157   2.257 108.048  1.00  0.00     0.046 A 
HETATM   12  H15 UNL     1      50.228   2.902 106.016  1.00  0.00     0.167 HD
HETATM   13  C22 UNL     1      50.690   3.282 108.836  1.00  0.00     0.030 A 
HETATM   14  C23 UNL     1      50.739   3.075 110.218  1.00  0.00     0.002 A 
HETATM   15  C24 UNL     1      50.273   1.890 110.787  1.00  0.00     0.001 A 
HETATM   16  C25 UNL     1      49.741   0.873 109.988  1.00  0.00     0.016 A 
ENDBRANCH   2   3
ENDBRANCH   1   2
BRANCH   1  17
HETATM   17  C5  UNL     1      47.926   0.787 101.694  1.00  0.00     0.243 C 
HETATM   18  O1  UNL     1      46.702   0.654 101.780  1.00  0.00    -0.271 OA
HETATM   19  N4  UNL     1      48.530   1.784 100.911  1.00  0.00    -0.279 N 
HETATM   20  C8  UNL     1      48.367   1.765  99.478  1.00  0.00     0.059 A 
HETATM   21  C11 UNL     1      49.128   2.922 101.560  1.00  0.00     0.059 A 
HETATM   22  C9  UNL     1      49.066   2.625  98.614  1.00  0.00     0.033 A 
HETATM   23  C12 UNL     1      47.509   0.813  98.880  1.00  0.00     0.031 A 
HETATM   24  S2  UNL     1      50.289   3.780  99.164  1.00  0.00    -0.086 SA
HETATM   25  C15 UNL     1      48.877   2.549  97.221  1.00  0.00     0.021 A 
HETATM   26  C10 UNL     1      49.914   3.870 100.889  1.00  0.00     0.033 A 
HETATM   27  C16 UNL     1      50.478   4.953 101.590  1.00  0.00     0.021 A 
HETATM   28  C17 UNL     1      50.258   5.120 102.955  1.00  0.00     0.002 A 
HETATM   29  C18 UNL     1      49.463   4.208 103.631  1.00  0.00     0.002 A 
HETATM   30  C19 UNL     1      48.904   3.129 102.942  1.00  0.00     0.031 A 
HETATM   31  C14 UNL     1      48.007   1.617  96.663  1.00  0.00     0.002 A 
HETATM   32  C13 UNL     1      47.326   0.744  97.495  1.00  0.00     0.002 A 
ENDBRANCH   1  17
BRANCH   1  33
HETATM   33  C6  UNL     1      49.939  -0.740 101.356  1.00  0.00     0.021 C 
HETATM   34  C7  UNL     1      51.277  -0.022 101.263  1.00  0.00     0.006 C 
ENDBRANCH   1  33
TORSDOF 4
ENDMDL
