MODEL 1
REMARK VINA RESULT:      -7.7      0.000      0.000
REMARK  3 active torsions:
REMARK  status: ('A' for Active; 'I' for Inactive)
REMARK    1  A    between atoms: C1_1  and  C5_9 
REMARK    2  A    between atoms: C3_4  and  N1_5 
REMARK    3  A    between atoms: N2_6  and  N3_7 
ROOT
HETATM    1  C1  UNL     1      50.174   2.088 104.540  1.00  0.00     0.076 A 
HETATM    2  C2  UNL     1      49.040   1.595 103.938  1.00  0.00     0.085 C 
HETATM    3  S1  UNL     1      49.539   1.486 102.305  1.00  0.00    -0.060 SA
HETATM    4  C3  UNL     1      51.131   2.065 102.489  1.00  0.00     0.187 A 
HETATM    5  N1  UNL     1      51.200   2.310 103.780  1.00  0.00    -0.222 NA
HETATM    6  N2  UNL     1      52.150   2.243 101.477  1.00  0.00    -0.255 N 
HETATM    7 BR1  UNL     1      51.609   1.500 102.977  1.00  0.00    -0.113 Br
HETATM    8  H2  UNL     1      53.055   2.604 101.784  1.00  0.00     0.191 HD
HETATM    9  H17 UNL     1      52.069   1.059 101.592  1.00  0.00     0.113 HD
ENDROOT
BRANCH   6  10
HETATM   10  N3  UNL     1      51.801   1.897 100.170  1.00  0.00    -0.182 NA
HETATM   11  C4  UNL     1      51.668   2.807  99.271  1.00  0.00     0.033 C 
HETATM   12  C11 UNL     1      51.871   4.253  99.544  1.00  0.00     0.057 C 
HETATM   13  C14 UNL     1      51.307   2.663  97.833  1.00  0.00     0.060 C 
HETATM   14  C12 UNL     1      50.878   4.920  98.614  1.00  0.00     0.010 C 
HETATM   15  C13 UNL     1      50.485   3.904  97.594  1.00  0.00    -0.013 C 
HETATM   16  C15 UNL     1      50.683   4.417  96.169  1.00  0.00     0.010 C 
ENDBRANCH   6  10
BRANCH   1  17
HETATM   17  C5  UNL     1      50.219   2.355 106.008  1.00  0.00    -0.007 A 
HETATM   18  C6  UNL     1      49.731   1.445 106.923  1.00  0.00     0.015 A 
HETATM   19  C7  UNL     1      49.755   1.653 108.284  1.00  0.00     0.024 A 
HETATM   20  C8  UNL     1      50.292   2.830 108.763  1.00  0.00     0.034 A 
HETATM   21  C9  UNL     1      50.788   3.757 107.876  1.00  0.00     0.024 A 
HETATM   22 CL1  UNL     1      50.315   3.078 110.494  1.00  0.00    -0.084 Cl
HETATM   23  C10 UNL     1      50.749   3.516 106.513  1.00  0.00     0.015 A 
ENDBRANCH   1  17
TORSDOF 3
ENDMDL
