MODEL 1
REMARK VINA RESULT:      -9.2      0.000      0.000
REMARK  6 active torsions:
REMARK  status: ('A' for Active; 'I' for Inactive)
REMARK    1  A    between atoms: C3_3  and  O6_30 
REMARK    2  A    between atoms: C7_7  and  O1_19 
REMARK    3  A    between atoms: C12_12  and  O7_31 
REMARK    4  A    between atoms: C16_16  and  C19_22 
REMARK    5  A    between atoms: C17_17  and  O5_25 
REMARK    6  A    between atoms: C18_18  and  N2_26 
REMARK       I    between atoms: C19_22  and  N1_23 
ROOT
HETATM    1  C1  UNL     1      49.428   0.669 109.849  1.00  0.00     0.027 A 
HETATM    2  C2  UNL     1      50.041   1.881 109.882  1.00  0.00     0.039 A 
HETATM    3  C3  UNL     1      50.391   2.498 108.664  1.00  0.00     0.079 A 
HETATM    4  C4  UNL     1      50.097   1.845 107.477  1.00  0.00     0.044 A 
HETATM    5  C5  UNL     1      49.468   0.603 107.452  1.00  0.00     0.008 A 
HETATM    6  C6  UNL     1      49.136   0.020 108.645  1.00  0.00     0.045 A 
HETATM    7  C7  UNL     1      50.450   2.460 106.280  1.00  0.00     0.094 A 
HETATM    8  C8  UNL     1      50.161   1.814 105.110  1.00  0.00     0.054 A 
HETATM    9  C9  UNL     1      49.540   0.585 105.065  1.00  0.00    -0.034 A 
HETATM   10  C10 UNL     1      49.177  -0.049 106.270  1.00  0.00    -0.042 A 
HETATM   11  C11 UNL     1      50.478   2.426 103.840  1.00  0.00     0.205 A 
HETATM   12  C12 UNL     1      50.776   1.580 102.679  1.00  0.00     0.194 C 
HETATM   13  C13 UNL     1      49.809   0.432 102.558  1.00  0.00     0.080 A 
HETATM   14  C14 UNL     1      49.262  -0.105 103.815  1.00  0.00     0.051 A 
HETATM   15  C15 UNL     1      50.824   2.436 101.475  1.00  0.00     0.210 C 
HETATM   16  C16 UNL     1      50.179   2.012 100.250  1.00  0.00     0.112 C 
HETATM   17  C17 UNL     1      49.097   1.267 100.341  1.00  0.00     0.096 C 
HETATM   18  C18 UNL     1      48.624   0.920 101.705  1.00  0.00     0.287 C 
HETATM   19  O2  UNL     1      50.498   3.661 103.731  1.00  0.00    -0.288 OA
HETATM   20  O3  UNL     1      51.439   3.541 101.539  1.00  0.00    -0.288 OA
HETATM   21 CL1  UNL     1      48.362  -1.526 108.790  1.00  0.00    -0.083 Cl
HETATM   22  C22 UNL     1      48.496  -1.340 106.297  1.00  0.00     0.049 C 
HETATM   23 CL2  UNL     1      49.513   1.131 104.419  1.00  0.00    -0.145 Cl
HETATM   24  H22 UNL     1      49.462   1.031 103.039  1.00  0.00     0.145 HD
ENDROOT
BRANCH  16  25
HETATM   25  C19 UNL     1      50.744   2.422  98.961  1.00  0.00     0.255 C 
HETATM   26  N1  UNL     1      52.086   2.205  98.602  1.00  0.00    -0.366 N 
HETATM   27  H8  UNL     1      52.808   2.963  98.519  1.00  0.00     0.159 HD
HETATM   28  H9  UNL     1      52.395   1.213  98.402  1.00  0.00     0.159 HD
HETATM   29  O4  UNL     1      49.975   2.994  98.152  1.00  0.00    -0.268 OA
ENDBRANCH  16  25
BRANCH  17  30
HETATM   30  O5  UNL     1      48.461   0.851  99.184  1.00  0.00    -0.362 OA
HETATM   31  H10 UNL     1      47.675   0.200  99.272  1.00  0.00     0.217 HD
ENDBRANCH  17  30
BRANCH  12  32
HETATM   32  O7  UNL     1      52.090   1.087 102.864  1.00  0.00    -0.373 OA
HETATM   33  H18 UNL     1      52.679   1.887 102.775  1.00  0.00     0.211 HD
ENDBRANCH  12  32
BRANCH  18  34
HETATM   34  N2  UNL     1      47.537   0.000 101.730  1.00  0.00     0.091 N 
HETATM   35  C20 UNL     1      47.667  -1.091 100.793  1.00  0.00     0.310 C 
HETATM   36  C21 UNL     1      46.328   0.725 101.413  1.00  0.00     0.310 C 
ENDBRANCH  18  34
BRANCH   7  37
HETATM   37  O1  UNL     1      51.065   3.671 106.298  1.00  0.00    -0.359 OA
HETATM   38  H7  UNL     1      50.965   4.431 106.893  1.00  0.00     0.217 HD
ENDBRANCH   7  37
BRANCH   3  39
HETATM   39  O6  UNL     1      51.000   3.707 108.773  1.00  0.00    -0.360 OA
HETATM   40  H17 UNL     1      51.244   4.473 108.262  1.00  0.00     0.217 HD
ENDBRANCH   3  39
TORSDOF 6
ENDMDL
