MODEL 1
REMARK VINA RESULT:      -6.6      0.000      0.000
REMARK  10 active torsions:
REMARK  status: ('A' for Active; 'I' for Inactive)
REMARK    1  A    between atoms: C1_1  and  O9_26 
REMARK    2  A    between atoms: C2_2  and  O8_25 
REMARK    3  A    between atoms: C3_3  and  O10_27 
REMARK    4  A    between atoms: C4_4  and  O3_9 
REMARK    5  A    between atoms: C5_6  and  C6_7 
REMARK    6  A    between atoms: C6_7  and  O2_8 
REMARK    7  A    between atoms: O3_9  and  C7_10 
REMARK    8  A    between atoms: C9_13  and  C15_19 
REMARK    9  A    between atoms: C13_17  and  O7_23 
REMARK   10  A    between atoms: C15_19  and  O6_21 
ROOT
HETATM    1  C7  UNL     1      50.895   5.653  99.420  1.00  0.00     0.273 C 
HETATM    2  O4  UNL     1      49.949   4.952 100.245  1.00  0.00    -0.331 OA
HETATM    3  C8  UNL     1      50.394   3.771 100.783  1.00  0.00     0.151 C 
HETATM    4  C9  UNL     1      51.490   3.103 100.394  1.00  0.00     0.044 C 
HETATM    5  C10 UNL     1      52.335   3.571  99.242  1.00  0.00     0.038 C 
HETATM    6  C11 UNL     1      51.639   4.710  98.467  1.00  0.00     0.056 C 
HETATM    7  C12 UNL     1      52.540   2.539  98.132  1.00  0.00     0.042 C 
HETATM    8  C13 UNL     1      51.253   2.573  97.316  1.00  0.00     0.123 C 
HETATM    9  C14 UNL     1      50.710   4.011  97.441  1.00  0.00     0.020 C 
HETATM   10  C17 UNL     1      50.629   4.795  96.135  1.00  0.00     0.013 C 
ENDROOT
BRANCH   1  11
HETATM   11  O3  UNL     1      51.877   6.330 100.210  1.00  0.00    -0.328 OA
BRANCH  11  12
HETATM   12  C4  UNL     1      51.735   7.756 100.133  1.00  0.00     0.294 C 
HETATM   13  C3  UNL     1      53.105   8.292  99.679  1.00  0.00     0.204 C 
HETATM   14  C2  UNL     1      53.097   9.823  99.563  1.00  0.00     0.183 C 
HETATM   15  C1  UNL     1      51.673  10.393  99.495  1.00  0.00     0.180 C 
HETATM   16  C5  UNL     1      50.704   9.451  98.747  1.00  0.00     0.179 C 
HETATM   17  O1  UNL     1      50.724   8.081  99.184  1.00  0.00    -0.348 OA
BRANCH  13  18
HETATM   18  O10 UNL     1      54.139   7.882 100.591  1.00  0.00    -0.388 OA
HETATM   19  H26 UNL     1      53.826   8.162 101.472  1.00  0.00     0.210 HD
ENDBRANCH  13  18
BRANCH  14  20
HETATM   20  O8  UNL     1      53.846  10.205  98.398  1.00  0.00    -0.390 OA
HETATM   21  H24 UNL     1      53.243  10.690  97.806  1.00  0.00     0.210 HD
ENDBRANCH  14  20
BRANCH  15  22
HETATM   22  O9  UNL     1      51.179  10.577 100.832  1.00  0.00    -0.390 OA
HETATM   23  H25 UNL     1      50.916  11.511 100.927  1.00  0.00     0.210 HD
ENDBRANCH  15  22
BRANCH  16  24
HETATM   24  C6  UNL     1      50.927   9.458  97.224  1.00  0.00     0.198 C 
BRANCH  24  25
HETATM   25  O2  UNL     1      51.651   8.311  96.799  1.00  0.00    -0.398 OA
HETATM   26  H8  UNL     1      51.874   7.806  97.604  1.00  0.00     0.209 HD
ENDBRANCH  24  25
ENDBRANCH  16  24
ENDBRANCH  11  12
ENDBRANCH   1  11
BRANCH   4  27
HETATM   27  C15 UNL     1      51.833   1.882 101.157  1.00  0.00     0.291 C 
HETATM   28  O5  UNL     1      52.446   1.881 102.214  1.00  0.00    -0.260 OA
BRANCH  27  29
HETATM   29  O6  UNL     1      51.381   0.790 100.496  1.00  0.00    -0.323 OA
HETATM   30  C16 UNL     1      50.708  -0.154 101.326  1.00  0.00     0.213 C 
ENDBRANCH  27  29
ENDBRANCH   4  27
BRANCH   8  31
HETATM   31  O7  UNL     1      51.523   2.171  95.987  1.00  0.00    -0.395 OA
HETATM   32  H20 UNL     1      52.069   2.863  95.574  1.00  0.00     0.210 HD
ENDBRANCH   8  31
TORSDOF 10
ENDMDL
