MODEL 1
REMARK VINA RESULT:      -9.0      0.000      0.000
REMARK  8 active torsions:
REMARK  status: ('A' for Active; 'I' for Inactive)
REMARK    1  A    between atoms: C2_2  and  O1_18 
REMARK    2  A    between atoms: C17_17  and  C20_21 
REMARK    3  A    between atoms: C20_21  and  C21_22 
REMARK    4  A    between atoms: C20_21  and  O2_24 
REMARK    5  A    between atoms: C21_22  and  C22_23 
REMARK    6  A    between atoms: C22_23  and  O3_25 
REMARK    7  A    between atoms: C22_23  and  C23_26 
REMARK    8  A    between atoms: C22_23  and  C24_27 
ROOT
HETATM    1  C1  UNL     1      48.141  -4.142 100.780  1.00  0.00     0.033 C 
HETATM    2  C2  UNL     1      46.980  -5.069 100.392  1.00  0.00     0.122 C 
HETATM    3  C3  UNL     1      45.686  -4.776 101.171  1.00  0.00     0.066 C 
HETATM    4  C4  UNL     1      45.990  -4.130 102.499  1.00  0.00    -0.072 C 
HETATM    5  C5  UNL     1      46.700  -2.769 102.425  1.00  0.00    -0.017 C 
HETATM    6  C6  UNL     1      47.629  -2.750 101.167  1.00  0.00     0.016 C 
HETATM    7  C7  UNL     1      45.747  -4.776 103.653  1.00  0.00    -0.023 C 
HETATM    8  C8  UNL     1      46.146  -4.274 105.003  1.00  0.00     0.033 C 
HETATM    9  C9  UNL     1      46.668  -2.829 105.015  1.00  0.00    -0.001 C 
HETATM   10  C10 UNL     1      47.529  -2.530 103.749  1.00  0.00     0.003 C 
HETATM   11  C11 UNL     1      47.499  -2.556 106.275  1.00  0.00    -0.001 C 
HETATM   12  C12 UNL     1      48.007  -1.097 106.391  1.00  0.00    -0.034 C 
HETATM   13  C13 UNL     1      48.924  -0.872 105.175  1.00  0.00     0.010 C 
HETATM   14  C14 UNL     1      48.199  -1.134 103.842  1.00  0.00     0.007 C 
HETATM   15  C15 UNL     1      46.856  -2.832 107.624  1.00  0.00     0.006 C 
HETATM   16  C16 UNL     1      47.754  -2.084 108.614  1.00  0.00     0.008 C 
HETATM   17  C17 UNL     1      48.711  -1.177 107.780  1.00  0.00     0.023 C 
HETATM   18  C18 UNL     1      45.621  -1.677 102.229  1.00  0.00     0.020 C 
HETATM   19  C19 UNL     1      46.881  -0.038 106.414  1.00  0.00     0.016 C 
ENDROOT
BRANCH  17  20
HETATM   20  C20 UNL     1      49.042   0.118 108.559  1.00  0.00     0.126 C 
BRANCH  20  21
HETATM   21  C21 UNL     1      50.374   0.767 108.189  1.00  0.00     0.089 C 
BRANCH  21  22
HETATM   22  C22 UNL     1      50.497   2.263 108.567  1.00  0.00     0.256 C 
BRANCH  22  23
HETATM   23  O3  UNL     1      49.286   2.601 109.323  1.00  0.00    -0.374 OA
HETATM   24  H34 UNL     1      48.581   2.799 108.670  1.00  0.00     0.211 HD
ENDBRANCH  22  23
BRANCH  22  25
HETATM   25  C23 UNL     1      51.748   2.646 109.353  1.00  0.00     0.427 C 
HETATM   26  F1  UNL     1      52.318   3.789 108.928  1.00  0.00    -0.167 F 
HETATM   27  F2  UNL     1      51.448   2.811 110.669  1.00  0.00    -0.167 F 
HETATM   28  F3  UNL     1      52.685   1.668 109.329  1.00  0.00    -0.167 F 
ENDBRANCH  22  25
BRANCH  22  29
HETATM   29  C24 UNL     1      50.574   3.084 107.281  1.00  0.00     0.427 C 
HETATM   30  F4  UNL     1      50.192   4.365 107.486  1.00  0.00    -0.167 F 
HETATM   31  F5  UNL     1      49.736   2.584 106.339  1.00  0.00    -0.167 F 
HETATM   32  F6  UNL     1      51.809   3.101 106.740  1.00  0.00    -0.167 F 
ENDBRANCH  22  29
ENDBRANCH  21  22
ENDBRANCH  20  21
BRANCH  20  33
HETATM   33  O2  UNL     1      49.169  -0.239 109.939  1.00  0.00    -0.395 OA
HETATM   34  H33 UNL     1      50.005   0.137 110.272  1.00  0.00     0.210 HD
ENDBRANCH  20  33
ENDBRANCH  17  20
BRANCH   2  35
HETATM   35  O1  UNL     1      46.730  -4.909  98.992  1.00  0.00    -0.395 OA
HETATM   36  H23 UNL     1      46.065  -5.571  98.738  1.00  0.00     0.210 HD
ENDBRANCH   2  35
TORSDOF 8
ENDMDL
