MODEL 1
REMARK VINA RESULT:     -10.3      0.000      0.000
REMARK  4 active torsions:
REMARK  status: ('A' for Active; 'I' for Inactive)
REMARK    1  A    between atoms: C16_18  and  N2_20 
REMARK    2  A    between atoms: N2_20  and  C17_21 
REMARK    3  A    between atoms: C17_21  and  C18_22 
REMARK    4  A    between atoms: C18_22  and  C19_23 
ROOT
HETATM    1  C1  UNL     1      50.119   0.431 103.346  1.00  0.00     0.001 A 
HETATM    2  C2  UNL     1      50.453   1.766 103.153  1.00  0.00     0.001 A 
HETATM    3  C3  UNL     1      50.467   2.629 104.242  1.00  0.00     0.016 A 
HETATM    4  C4  UNL     1      50.122   2.160 105.522  1.00  0.00     0.026 A 
HETATM    5  C5  UNL     1      49.707   0.832 105.726  1.00  0.00    -0.009 A 
HETATM    6  C6  UNL     1      49.769  -0.029 104.620  1.00  0.00     0.013 A 
HETATM    7  C7  UNL     1      50.281   3.086 106.666  1.00  0.00     0.194 C 
HETATM    8  C8  UNL     1      50.176   2.560 108.044  1.00  0.00     0.028 A 
HETATM    9  C9  UNL     1      49.696   1.264 108.259  1.00  0.00     0.018 A 
HETATM   10  C10 UNL     1      49.323   0.398 107.110  1.00  0.00     0.015 C 
HETATM   11  C11 UNL     1      50.537   3.382 109.121  1.00  0.00     0.016 A 
HETATM   12  C12 UNL     1      50.418   2.912 110.428  1.00  0.00     0.003 A 
HETATM   13  C13 UNL     1      49.916   1.635 110.660  1.00  0.00     0.030 A 
HETATM   14  C14 UNL     1      49.544   0.831 109.579  1.00  0.00     0.047 A 
HETATM   15  O1  UNL     1      50.530   4.275 106.482  1.00  0.00    -0.287 OA
HETATM   16  N1  UNL     1      48.968  -0.410 109.821  1.00  0.00    -0.321 N 
HETATM   17  C15 UNL     1      48.463  -1.194 108.829  1.00  0.00     0.268 C 
HETATM   18  C16 UNL     1      48.617  -0.732 107.383  1.00  0.00     0.089 C 
HETATM   19  O2  UNL     1      47.889  -2.254 109.081  1.00  0.00    -0.266 OA
HETATM   20  H8  UNL     1      48.830  -0.746 110.764  1.00  0.00     0.169 HD
ENDROOT
BRANCH  18  21
HETATM   21  N2  UNL     1      47.984  -1.602 106.473  1.00  0.00    -0.287 NA
HETATM   22  H9  UNL     1      48.160  -2.557 106.816  1.00  0.00     0.127 HD
BRANCH  21  23
HETATM   23  C17 UNL     1      46.540  -1.462 106.225  1.00  0.00     0.097 C 
BRANCH  23  24
HETATM   24  C18 UNL     1      46.193  -0.060 105.705  1.00  0.00     0.053 C 
BRANCH  24  25
HETATM   25  C19 UNL     1      45.986  -0.002 104.209  1.00  0.00    -0.057 A 
HETATM   26  C20 UNL     1      45.236  -0.990 103.556  1.00  0.00     0.007 A 
HETATM   27  C21 UNL     1      45.040  -0.931 102.176  1.00  0.00     0.001 A 
HETATM   28  C22 UNL     1      45.585   0.116 101.435  1.00  0.00     0.000 A 
HETATM   29  C23 UNL     1      46.326   1.107 102.075  1.00  0.00     0.001 A 
HETATM   30  C24 UNL     1      46.526   1.050 103.457  1.00  0.00     0.007 A 
ENDBRANCH  24  25
ENDBRANCH  23  24
ENDBRANCH  21  23
ENDBRANCH  18  21
TORSDOF 4
ENDMDL
