MODEL 1
REMARK VINA RESULT:      -8.8      0.000      0.000
REMARK  7 active torsions:
REMARK  status: ('A' for Active; 'I' for Inactive)
REMARK    1  A    between atoms: C7_7  and  C9_10 
REMARK    2  A    between atoms: N1_9  and  C10_13 
REMARK       I    between atoms: C9_10  and  N2_11 
REMARK    3  A    between atoms: N2_11  and  C17_21 
REMARK    4  A    between atoms: C10_13  and  C11_14 
REMARK    5  A    between atoms: C17_21  and  C18_22 
REMARK    6  A    between atoms: C17_21  and  C22_26 
REMARK    7  A    between atoms: C22_26  and  O2_27 
ROOT
HETATM    1  C1  UNL     1      49.657   1.022 110.172  1.00  0.00     0.030 A 
HETATM    2  C2  UNL     1      50.247   2.120 110.801  1.00  0.00     0.002 A 
HETATM    3  C3  UNL     1      50.750   3.179 110.058  1.00  0.00     0.001 A 
HETATM    4  C4  UNL     1      50.684   3.162 108.662  1.00  0.00     0.015 A 
HETATM    5  C5  UNL     1      50.113   2.055 107.991  1.00  0.00     0.008 A 
HETATM    6  C6  UNL     1      49.592   1.012 108.768  1.00  0.00     0.045 A 
HETATM    7  C7  UNL     1      49.902   1.716 106.610  1.00  0.00     0.060 A 
HETATM    8  C8  UNL     1      49.227   0.508 106.604  1.00  0.00     0.109 A 
HETATM    9  N1  UNL     1      49.049   0.091 107.896  1.00  0.00    -0.351 N 
ENDROOT
BRANCH   7  10
HETATM   10  C9  UNL     1      50.265   2.431 105.390  1.00  0.00     0.254 C 
HETATM   11  N2  UNL     1      50.260   1.660 104.247  1.00  0.00    -0.342 N 
HETATM   12  H6  UNL     1      49.675   0.836 104.304  1.00  0.00     0.163 HD
HETATM   13  O1  UNL     1      50.501   3.635 105.378  1.00  0.00    -0.268 OA
BRANCH  11  14
HETATM   14  C17 UNL     1      50.373   2.285 102.925  1.00  0.00     0.190 C 
BRANCH  14  15
HETATM   15  C18 UNL     1      51.211   1.417 101.939  1.00  0.00    -0.021 C 
HETATM   16  C19 UNL     1      52.188   0.530 102.743  1.00  0.00     0.017 C 
HETATM   17  C20 UNL     1      52.052   2.316 101.013  1.00  0.00     0.017 C 
HETATM   18  C21 UNL     1      50.331   0.503 101.065  1.00  0.00     0.017 C 
ENDBRANCH  14  15
BRANCH  14  19
HETATM   19  C22 UNL     1      48.942   2.543 102.440  1.00  0.00     0.164 C 
HETATM   20  O3  UNL     1      47.949   1.902 102.751  1.00  0.00    -0.648 OA
BRANCH  19  21
HETATM   21  O2  UNL     1      48.845   3.573 101.576  1.00  0.00    -0.775 OA
HETATM   22  H23 UNL     1      47.885   3.773 101.546  1.00  0.00     0.167 HD
ENDBRANCH  19  21
ENDBRANCH  14  19
ENDBRANCH  11  14
ENDBRANCH   7  10
BRANCH   9  23
HETATM   23  C10 UNL     1      48.419  -1.172 108.267  1.00  0.00     0.167 C 
BRANCH  23  24
HETATM   24  C11 UNL     1      47.991  -1.988 107.068  1.00  0.00    -0.040 A 
HETATM   25  C12 UNL     1      46.902  -1.568 106.286  1.00  0.00     0.012 A 
HETATM   26  C13 UNL     1      46.483  -2.325 105.189  1.00  0.00     0.043 A 
HETATM   27  C14 UNL     1      47.146  -3.505 104.877  1.00  0.00     0.116 A 
HETATM   28  C15 UNL     1      48.219  -3.945 105.642  1.00  0.00     0.043 A 
HETATM   29  F1  UNL     1      46.744  -4.231 103.825  1.00  0.00    -0.206 F 
HETATM   30  C16 UNL     1      48.639  -3.192 106.738  1.00  0.00     0.012 A 
ENDBRANCH  23  24
ENDBRANCH   9  23
TORSDOF 7
ENDMDL
