MODEL 1
REMARK VINA RESULT:      -5.4      0.000      0.000
REMARK  16 active torsions:
REMARK  status: ('A' for Active; 'I' for Inactive)
REMARK    1  A    between atoms: O1_1  and  C1_2 
REMARK    2  A    between atoms: O1_1  and  C2_3 
REMARK    3  A    between atoms: C1_2  and  C3_4 
REMARK    4  A    between atoms: C1_2  and  C4_5 
REMARK    5  A    between atoms: C3_4  and  C6_8 
REMARK    6  A    between atoms: C3_4  and  O3_9 
REMARK    7  A    between atoms: C4_5  and  C7_10 
REMARK    8  A    between atoms: C4_5  and  O4_11 
REMARK    9  A    between atoms: C5_7  and  O5_13 
REMARK   10  A    between atoms: C6_8  and  C10_15 
REMARK   11  A    between atoms: C6_8  and  O6_16 
REMARK   12  A    between atoms: C7_10  and  O7_17 
REMARK   13  A    between atoms: C8_12  and  C11_18 
REMARK   14  A    between atoms: C9_14  and  O8_20 
REMARK   15  A    between atoms: C11_18  and  O10_22 
REMARK   16  A    between atoms: C12_19  and  O11_23 
ROOT
HETATM    1  O1  UNL     1      48.569  -1.025 107.531  1.00  0.00    -0.348 OA
ENDROOT
BRANCH   1   2
HETATM    2  C1  UNL     1      47.244  -1.267 107.030  1.00  0.00     0.187 C 
BRANCH   2   3
HETATM    3  C3  UNL     1      47.257  -1.503 105.492  1.00  0.00     0.185 C 
BRANCH   3   4
HETATM    4  C6  UNL     1      46.316  -0.623 104.649  1.00  0.00     0.210 C 
BRANCH   4   5
HETATM    5  C10 UNL     1      47.043   0.136 103.548  1.00  0.00     0.265 C 
HETATM    6  O9  UNL     1      47.880   1.009 103.766  1.00  0.00    -0.304 OA
ENDBRANCH   4   5
BRANCH   4   7
HETATM    7  O6  UNL     1      45.545   0.237 105.482  1.00  0.00    -0.386 OA
HETATM    8  H15 UNL     1      45.171   0.922 104.891  1.00  0.00     0.210 HD
ENDBRANCH   4   7
ENDBRANCH   3   4
BRANCH   3   9
HETATM    9  O3  UNL     1      48.592  -1.487 104.972  1.00  0.00    -0.390 OA
HETATM   10  H7  UNL     1      49.146  -0.979 105.591  1.00  0.00     0.210 HD
ENDBRANCH   3   9
ENDBRANCH   2   3
BRANCH   2  11
HETATM   11  C4  UNL     1      46.658  -2.413 107.897  1.00  0.00     0.173 C 
BRANCH  11  12
HETATM   12  C7  UNL     1      47.770  -3.208 108.601  1.00  0.00     0.198 C 
BRANCH  12  13
HETATM   13  O7  UNL     1      47.772  -2.899 109.998  1.00  0.00    -0.398 OA
HETATM   14  H16 UNL     1      48.074  -1.977 110.073  1.00  0.00     0.209 HD
ENDBRANCH  12  13
ENDBRANCH  11  12
BRANCH  11  15
HETATM   15  O4  UNL     1      45.750  -1.940 108.891  1.00  0.00    -0.391 OA
HETATM   16  H10 UNL     1      45.380  -2.742 109.311  1.00  0.00     0.210 HD
ENDBRANCH  11  15
ENDBRANCH   2  11
ENDBRANCH   1   2
BRANCH   1  17
HETATM   17  C2  UNL     1      48.831   0.344 107.861  1.00  0.00     0.292 C 
HETATM   18  O2  UNL     1      49.483   0.961 106.753  1.00  0.00    -0.348 OA
HETATM   19  C8  UNL     1      49.865   2.320 106.996  1.00  0.00     0.179 C 
HETATM   20  C12 UNL     1      50.869   2.386 108.157  1.00  0.00     0.180 C 
HETATM   21  C9  UNL     1      50.219   1.778 109.400  1.00  0.00     0.183 C 
HETATM   22  C5  UNL     1      49.724   0.361 109.118  1.00  0.00     0.204 C 
BRANCH  19  23
HETATM   23  C11 UNL     1      50.456   2.859 105.689  1.00  0.00     0.198 C 
BRANCH  23  24
HETATM   24  O10 UNL     1      50.381   1.873 104.661  1.00  0.00    -0.398 OA
HETATM   25  H21 UNL     1      49.454   1.560 104.651  1.00  0.00     0.209 HD
ENDBRANCH  23  24
ENDBRANCH  19  23
BRANCH  20  26
HETATM   26  O11 UNL     1      51.248   3.730 108.465  1.00  0.00    -0.390 OA
HETATM   27  H22 UNL     1      50.442   4.185 108.776  1.00  0.00     0.210 HD
ENDBRANCH  20  26
BRANCH  21  28
HETATM   28  O8  UNL     1      51.160   1.743 110.484  1.00  0.00    -0.390 OA
HETATM   29  H20 UNL     1      51.950   1.295 110.123  1.00  0.00     0.210 HD
ENDBRANCH  21  28
BRANCH  22  30
HETATM   30  O5  UNL     1      49.007  -0.111 110.272  1.00  0.00    -0.388 OA
HETATM   31  H12 UNL     1      48.282   0.535 110.396  1.00  0.00     0.210 HD
ENDBRANCH  22  30
ENDBRANCH   1  17
TORSDOF 16
ENDMDL
