MODEL 1
REMARK VINA RESULT:      -7.1      0.000      0.000
REMARK  8 active torsions:
REMARK  status: ('A' for Active; 'I' for Inactive)
REMARK    1  A    between atoms: C1_1  and  N1_8 
REMARK    2  A    between atoms: C2_2  and  O3_9 
REMARK    3  A    between atoms: C3_3  and  O4_10 
REMARK    4  A    between atoms: C4_4  and  C5_7 
REMARK    5  A    between atoms: O2_6  and  C5_7 
REMARK    6  A    between atoms: C9_15  and  N5_19 
REMARK    7  A    between atoms: N5_19  and  C11_20 
REMARK    8  A    between atoms: C11_20  and  C12_21 
ROOT
HETATM    1  N1  UNL     1      49.872   3.357 103.120  1.00  0.00    -0.294 N 
HETATM    2  C6  UNL     1      49.628   2.281 103.934  1.00  0.00     0.214 A 
HETATM    3  N2  UNL     1      49.825   2.567 105.204  1.00  0.00    -0.236 NA
HETATM    4  C7  UNL     1      50.177   3.902 105.215  1.00  0.00     0.144 A 
HETATM    5  C8  UNL     1      50.214   4.409 103.927  1.00  0.00     0.166 A 
HETATM    6  C9  UNL     1      50.506   4.788 106.261  1.00  0.00     0.137 A 
HETATM    7  N3  UNL     1      50.830   6.065 105.925  1.00  0.00    -0.228 NA
HETATM    8  C10 UNL     1      50.820   6.420 104.623  1.00  0.00     0.237 A 
HETATM    9  N4  UNL     1      50.530   5.657 103.550  1.00  0.00    -0.222 NA
ENDROOT
BRANCH   1  10
HETATM   10  C1  UNL     1      49.787   3.414 101.671  1.00  0.00     0.262 C 
HETATM   11  C2  UNL     1      51.148   3.256 100.977  1.00  0.00     0.198 C 
HETATM   12  C3  UNL     1      51.169   1.773 100.661  1.00  0.00     0.182 C 
HETATM   13  C4  UNL     1      49.710   1.533 100.294  1.00  0.00     0.179 C 
HETATM   14  O1  UNL     1      48.936   2.325 101.209  1.00  0.00    -0.353 OA
BRANCH  11  15
HETATM   15  O3  UNL     1      51.184   3.997  99.745  1.00  0.00    -0.388 OA
HETATM   16  H8  UNL     1      50.251   4.244  99.571  1.00  0.00     0.210 HD
ENDBRANCH  11  15
BRANCH  12  17
HETATM   17  O4  UNL     1      52.071   1.476  99.603  1.00  0.00    -0.390 OA
HETATM   18  H9  UNL     1      52.888   1.140 100.035  1.00  0.00     0.210 HD
ENDBRANCH  12  17
BRANCH  13  19
HETATM   19  C5  UNL     1      49.322   0.059 100.375  1.00  0.00     0.198 C 
BRANCH  19  20
HETATM   20  O2  UNL     1      50.475  -0.736 100.640  1.00  0.00    -0.398 OA
HETATM   21  H5  UNL     1      51.065  -0.637  99.869  1.00  0.00     0.209 HD
ENDBRANCH  19  20
ENDBRANCH  13  19
ENDBRANCH   1  10
BRANCH   6  22
HETATM   22  N5  UNL     1      50.482   4.372 107.593  1.00  0.00    -0.272 NA
HETATM   23  H12 UNL     1      49.538   4.096 107.857  1.00  0.00     0.129 HD
BRANCH  22  24
HETATM   24  C11 UNL     1      51.516   3.457 108.022  1.00  0.00     0.121 C 
BRANCH  24  25
HETATM   25  C12 UNL     1      50.878   2.182 108.491  1.00  0.00    -0.010 C 
HETATM   26  C13 UNL     1      50.411   1.890 109.722  1.00  0.00    -0.090 C 
HETATM   27  C14 UNL     1      49.822   0.537 110.021  1.00  0.00     0.042 C 
HETATM   28  C15 UNL     1      50.404   2.843 110.885  1.00  0.00     0.042 C 
ENDBRANCH  24  25
ENDBRANCH  22  24
ENDBRANCH   6  22
TORSDOF 8
ENDMDL
