MODEL 1
REMARK VINA RESULT:      -6.5      0.000      0.000
REMARK  19 active torsions:
REMARK  status: ('A' for Active; 'I' for Inactive)
REMARK    1  A    between atoms: C1_1  and  C2_2 
REMARK    2  A    between atoms: C1_1  and  C22_22 
REMARK    3  A    between atoms: C2_2  and  C3_3 
REMARK    4  A    between atoms: C3_3  and  C4_4 
REMARK    5  A    between atoms: C4_4  and  C5_5 
REMARK    6  A    between atoms: C5_5  and  C6_6 
REMARK    7  A    between atoms: C6_6  and  C7_7 
REMARK    8  A    between atoms: C7_7  and  C8_8 
REMARK    9  A    between atoms: C8_8  and  C9_9 
REMARK   10  A    between atoms: C9_9  and  C10_10 
REMARK   11  A    between atoms: C10_10  and  C11_11 
REMARK   12  A    between atoms: C11_11  and  C12_12 
REMARK   13  A    between atoms: C13_13  and  C14_14 
REMARK   14  A    between atoms: C14_14  and  C15_15 
REMARK   15  A    between atoms: C16_16  and  C17_17 
REMARK   16  A    between atoms: C17_17  and  C18_18 
REMARK   17  A    between atoms: C18_18  and  C19_19 
REMARK   18  A    between atoms: C19_19  and  C20_20 
REMARK   19  A    between atoms: C22_22  and  O2_24 
ROOT
HETATM    1  C9  UNL     1      46.827  -0.389 105.928  1.00  0.00     0.000 C 
ENDROOT
BRANCH   1   2
HETATM    2  C8  UNL     1      46.691  -0.900 104.490  1.00  0.00     0.000 C 
BRANCH   2   3
HETATM    3  C7  UNL     1      47.789  -0.456 103.518  1.00  0.00     0.000 C 
BRANCH   3   4
HETATM    4  C6  UNL     1      48.516   0.816 103.961  1.00  0.00     0.000 C 
BRANCH   4   5
HETATM    5  C5  UNL     1      49.974   0.568 104.360  1.00  0.00     0.000 C 
BRANCH   5   6
HETATM    6  C4  UNL     1      51.028   1.244 103.476  1.00  0.00     0.000 C 
BRANCH   6   7
HETATM    7  C3  UNL     1      51.823   0.306 102.563  1.00  0.00     0.000 C 
BRANCH   7   8
HETATM    8  C2  UNL     1      51.198   0.032 101.192  1.00  0.00     0.010 C 
BRANCH   8   9
HETATM    9  C1  UNL     1      50.600   1.279 100.540  1.00  0.00     0.111 C 
BRANCH   9  10
HETATM   10  C22 UNL     1      51.660   2.150  99.905  1.00  0.00     0.258 C 
HETATM   11  O1  UNL     1      52.307   1.871  98.907  1.00  0.00    -0.265 OA
BRANCH  10  12
HETATM   12  O2  UNL     1      51.773   3.309 100.615  1.00  0.00    -0.326 OA
HETATM   13  C23 UNL     1      51.188   4.443  99.972  1.00  0.00     0.213 C 
ENDBRANCH  10  12
ENDBRANCH   9  10
ENDBRANCH   8   9
ENDBRANCH   7   8
ENDBRANCH   6   7
ENDBRANCH   5   6
ENDBRANCH   4   5
ENDBRANCH   3   4
ENDBRANCH   2   3
ENDBRANCH   1   2
BRANCH   1  14
HETATM   14  C10 UNL     1      46.741  -1.453 107.025  1.00  0.00     0.004 C 
BRANCH  14  15
HETATM   15  C11 UNL     1      48.007  -1.553 107.879  1.00  0.00     0.027 C 
BRANCH  15  16
HETATM   16  C12 UNL     1      48.984  -0.469 107.527  1.00  0.00    -0.030 C 
HETATM   17  C13 UNL     1      49.662   0.380 108.318  1.00  0.00    -0.027 C 
BRANCH  17  18
HETATM   18  C14 UNL     1      49.744   0.574 109.809  1.00  0.00     0.053 C 
BRANCH  18  19
HETATM   19  C15 UNL     1      49.517   1.958 110.333  1.00  0.00    -0.027 C 
HETATM   20  C16 UNL     1      50.376   2.992 110.295  1.00  0.00    -0.030 C 
BRANCH  20  21
HETATM   21  C17 UNL     1      51.786   2.963 109.782  1.00  0.00     0.027 C 
BRANCH  21  22
HETATM   22  C18 UNL     1      51.930   3.327 108.300  1.00  0.00     0.004 C 
BRANCH  22  23
HETATM   23  C19 UNL     1      50.724   4.036 107.673  1.00  0.00    -0.000 C 
BRANCH  23  24
HETATM   24  C20 UNL     1      50.336   3.521 106.287  1.00  0.00    -0.005 C 
HETATM   25  C21 UNL     1      50.038   4.670 105.334  1.00  0.00     0.005 C 
ENDBRANCH  23  24
ENDBRANCH  22  23
ENDBRANCH  21  22
ENDBRANCH  20  21
ENDBRANCH  18  19
ENDBRANCH  17  18
ENDBRANCH  15  16
ENDBRANCH  14  15
ENDBRANCH   1  14
TORSDOF 19
ENDMDL
