MODEL 1
REMARK VINA RESULT:      -7.7      0.000      0.000
REMARK  5 active torsions:
REMARK  status: ('A' for Active; 'I' for Inactive)
REMARK    1  A    between atoms: C14_14  and  O2_21 
REMARK    2  A    between atoms: C17_17  and  C20_22 
REMARK    3  A    between atoms: C17_17  and  O5_26 
REMARK    4  A    between atoms: C20_22  and  C21_23 
REMARK    5  A    between atoms: C21_23  and  O4_25 
ROOT
HETATM    1  C1  UNL     1      46.610  -3.597 106.101  1.00  0.00     0.084 C 
HETATM    2  C2  UNL     1      47.030  -3.562 107.550  1.00  0.00     0.149 C 
HETATM    3  C3  UNL     1      47.875  -2.441 108.025  1.00  0.00     0.053 C 
HETATM    4  C4  UNL     1      48.188  -1.401 107.230  1.00  0.00    -0.068 C 
HETATM    5  C5  UNL     1      47.680  -1.280 105.785  1.00  0.00    -0.014 C 
HETATM    6  C6  UNL     1      47.493  -2.713 105.222  1.00  0.00     0.022 C 
HETATM    7  C7  UNL     1      49.159  -0.353 107.727  1.00  0.00     0.035 C 
HETATM    8  C8  UNL     1      48.994   1.008 107.056  1.00  0.00     0.010 C 
HETATM    9  C9  UNL     1      48.960   0.953 105.514  1.00  0.00    -0.002 C 
HETATM   10  C10 UNL     1      48.776  -0.504 104.975  1.00  0.00     0.031 C 
HETATM   11  C11 UNL     1      50.208   1.539 104.837  1.00  0.00     0.002 C 
HETATM   12  C12 UNL     1      50.062   1.650 103.290  1.00  0.00     0.001 C 
HETATM   13  C13 UNL     1      49.823   0.223 102.740  1.00  0.00     0.045 C 
HETATM   14  C14 UNL     1      48.659  -0.528 103.430  1.00  0.00     0.124 C 
HETATM   15  C15 UNL     1      50.693   2.925 105.244  1.00  0.00     0.009 C 
HETATM   16  C16 UNL     1      51.625   3.350 104.094  1.00  0.00     0.047 C 
HETATM   17  C17 UNL     1      51.436   2.312 102.948  1.00  0.00     0.128 C 
HETATM   18  C18 UNL     1      48.913   2.597 102.842  1.00  0.00     0.019 C 
HETATM   19  O1  UNL     1      46.677  -4.428 108.350  1.00  0.00    -0.293 OA
HETATM   20  C19 UNL     1      46.308  -0.562 105.793  1.00  0.00     0.020 C 
ENDROOT
BRANCH  17  21
HETATM   21  C20 UNL     1      51.531   2.959 101.549  1.00  0.00     0.184 C 
HETATM   22  O3  UNL     1      51.250   4.143 101.339  1.00  0.00    -0.292 OA
BRANCH  21  23
HETATM   23  C21 UNL     1      52.000   2.083 100.393  1.00  0.00     0.245 C 
BRANCH  23  24
HETATM   24  O4  UNL     1      50.899   1.475  99.725  1.00  0.00    -0.393 OA
HETATM   25  H29 UNL     1      51.207   1.274  98.817  1.00  0.00     0.209 HD
ENDBRANCH  23  24
ENDBRANCH  21  23
ENDBRANCH  17  21
BRANCH  17  26
HETATM   26  O5  UNL     1      52.483   1.340 103.057  1.00  0.00    -0.381 OA
HETATM   27  H30 UNL     1      52.670   1.205 104.005  1.00  0.00     0.211 HD
ENDBRANCH  17  26
BRANCH  14  28
HETATM   28  O2  UNL     1      47.413   0.010 103.010  1.00  0.00    -0.395 OA
HETATM   29  H26 UNL     1      46.906   0.244 103.806  1.00  0.00     0.210 HD
ENDBRANCH  14  28
TORSDOF 5
ENDMDL
