MODEL 1
REMARK VINA RESULT:      -7.4      0.000      0.000
REMARK  6 active torsions:
REMARK  status: ('A' for Active; 'I' for Inactive)
REMARK    1  A    between atoms: C3_3  and  N2_10 
REMARK    2  A    between atoms: C7_7  and  S1_14 
REMARK    3  A    between atoms: N1_9  and  C18_23 
REMARK       I    between atoms: N2_10  and  C9_11 
REMARK    4  A    between atoms: S1_14  and  C11_15 
REMARK    5  A    between atoms: C18_23  and  C19_24 
REMARK    6  A    between atoms: C19_24  and  O2_25 
ROOT
HETATM    1  C1  UNL     1      50.584   4.934 105.257  1.00  0.00     0.005 A 
HETATM    2  C2  UNL     1      50.617   3.976 104.249  1.00  0.00     0.030 A 
HETATM    3  C3  UNL     1      50.424   2.617 104.533  1.00  0.00     0.048 A 
HETATM    4  C4  UNL     1      50.193   2.227 105.886  1.00  0.00     0.037 A 
HETATM    5  C5  UNL     1      50.162   3.216 106.878  1.00  0.00     0.049 A 
HETATM    6  C6  UNL     1      50.357   4.575 106.582  1.00  0.00     0.031 A 
HETATM    7  C7  UNL     1      49.982   0.983 106.563  1.00  0.00     0.042 A 
HETATM    8  C8  UNL     1      49.804   1.225 107.913  1.00  0.00     0.027 A 
HETATM    9  N1  UNL     1      49.922   2.588 108.090  1.00  0.00    -0.339 N 
HETATM   10  C17 UNL     1      49.545   0.285 109.042  1.00  0.00     0.070 C 
ENDROOT
BRANCH   7  11
HETATM   11  S1  UNL     1      49.954  -0.598 105.793  1.00  0.00    -0.088 SA
BRANCH  11  12
HETATM   12  C11 UNL     1      48.330  -0.616 105.052  1.00  0.00     0.005 A 
HETATM   13  C12 UNL     1      47.208  -0.116 105.725  1.00  0.00     0.020 A 
HETATM   14  C13 UNL     1      45.947  -0.156 105.124  1.00  0.00     0.025 A 
HETATM   15  C14 UNL     1      45.803  -0.705 103.852  1.00  0.00     0.034 A 
HETATM   16  C15 UNL     1      46.909  -1.219 103.178  1.00  0.00     0.025 A 
HETATM   17 CL1  UNL     1      44.252  -0.752 103.110  1.00  0.00    -0.084 Cl
HETATM   18  C16 UNL     1      48.170  -1.178 103.780  1.00  0.00     0.020 A 
ENDBRANCH  11  12
ENDBRANCH   7  11
BRANCH   3  19
HETATM   19  N2  UNL     1      50.447   1.615 103.537  1.00  0.00    -0.327 N 
HETATM   20  C9  UNL     1      51.519   1.166 102.794  1.00  0.00     0.218 C 
HETATM   21  C10 UNL     1      51.122   0.085 101.819  1.00  0.00     0.117 C 
HETATM   22  O1  UNL     1      52.686   1.530 102.883  1.00  0.00    -0.274 OA
HETATM   23  H4  UNL     1      49.548   1.178 103.359  1.00  0.00     0.169 HD
ENDBRANCH   3  19
BRANCH   9  24
HETATM   24  C18 UNL     1      49.787   3.300 109.353  1.00  0.00     0.239 C 
BRANCH  24  25
HETATM   25  C19 UNL     1      50.921   3.014 110.295  1.00  0.00     0.158 C 
HETATM   26  O3  UNL     1      50.813   2.607 111.441  1.00  0.00    -0.649 OA
BRANCH  25  27
HETATM   27  O2  UNL     1      52.141   3.208 109.756  1.00  0.00    -0.775 OA
HETATM   28  H17 UNL     1      52.389   4.117 110.026  1.00  0.00     0.167 HD
ENDBRANCH  25  27
ENDBRANCH  24  25
ENDBRANCH   9  24
TORSDOF 6
ENDMDL
