MODEL 1
REMARK VINA RESULT:      -8.6      0.000      0.000
REMARK  3 active torsions:
REMARK  status: ('A' for Active; 'I' for Inactive)
REMARK    1  A    between atoms: C2_3  and  N5_15 
REMARK    2  A    between atoms: C5_7  and  C11_16 
REMARK    3  A    between atoms: N4_9  and  C6_10 
ROOT
HETATM    1  C1  UNL     1      51.211   2.894 109.870  1.00  0.00     0.237 A 
HETATM    2  N1  UNL     1      50.601   1.812 110.390  1.00  0.00    -0.229 NA
HETATM    3  C2  UNL     1      49.911   0.997 109.564  1.00  0.00     0.118 A 
HETATM    4  C3  UNL     1      49.869   1.304 108.196  1.00  0.00     0.083 A 
HETATM    5  C4  UNL     1      50.524   2.460 107.805  1.00  0.00     0.163 A 
HETATM    6  N2  UNL     1      51.215   3.303 108.593  1.00  0.00    -0.222 NA
HETATM    7  C5  UNL     1      49.322   0.772 106.988  1.00  0.00     0.106 A 
HETATM    8  N3  UNL     1      49.555   1.590 105.947  1.00  0.00    -0.169 NA
HETATM    9  N4  UNL     1      50.319   2.579 106.459  1.00  0.00    -0.246 N 
ENDROOT
BRANCH   7  10
HETATM   10  C11 UNL     1      48.579  -0.467 106.782  1.00  0.00     0.014 A 
HETATM   11  C12 UNL     1      47.230  -0.430 106.420  1.00  0.00     0.133 A 
HETATM   12  N6  UNL     1      46.423  -1.503 106.208  1.00  0.00    -0.242 NA
HETATM   13  C13 UNL     1      47.071  -2.672 106.360  1.00  0.00     0.137 A 
HETATM   14  C14 UNL     1      48.407  -2.865 106.697  1.00  0.00     0.012 A 
HETATM   15  N7  UNL     1      46.497  -3.903 106.194  1.00  0.00    -0.350 N 
HETATM   16  C15 UNL     1      49.193  -1.720 106.908  1.00  0.00     0.030 A 
HETATM   17  C17 UNL     1      48.624  -4.268 106.733  1.00  0.00     0.032 A 
HETATM   18  C16 UNL     1      47.430  -4.884 106.422  1.00  0.00     0.090 A 
HETATM   19  H15 UNL     1      45.532  -4.037 105.934  1.00  0.00     0.166 HD
ENDBRANCH   7  10
BRANCH   3  20
HETATM   20  N5  UNL     1      49.268  -0.076 110.161  1.00  0.00    -0.286 NA
HETATM   21  H11 UNL     1      49.736  -0.468 110.970  1.00  0.00     0.125 HD
HETATM   22  H12 UNL     1      48.973  -0.748 109.460  1.00  0.00     0.125 HD
ENDBRANCH   3  20
BRANCH   9  23
HETATM   23  C6  UNL     1      50.802   3.654 105.622  1.00  0.00     0.112 C 
HETATM   24  C7  UNL     1      50.237   3.694 104.200  1.00  0.00     0.027 C 
HETATM   25  C8  UNL     1      50.562   5.104 103.716  1.00  0.00     0.002 C 
HETATM   26  C9  UNL     1      50.666   5.974 104.973  1.00  0.00     0.002 C 
HETATM   27  C10 UNL     1      50.450   5.040 106.160  1.00  0.00     0.027 C 
ENDBRANCH   9  23
TORSDOF 3
ENDMDL
