MODEL 1
REMARK VINA RESULT:      -8.1      0.000      0.000
REMARK  4 active torsions:
REMARK  status: ('A' for Active; 'I' for Inactive)
REMARK       I    between atoms: N2_5  and  C6_8 
REMARK    1  A    between atoms: C6_8  and  C7_10 
REMARK    2  A    between atoms: C10_13  and  N3_17 
REMARK    3  A    between atoms: N3_17  and  C13_18 
REMARK    4  A    between atoms: C14_20  and  C17_24 
ROOT
HETATM    1  C7  UNL     1      51.280   2.642  98.299  1.00  0.00     0.054 A 
HETATM    2  C8  UNL     1      50.141   2.296  99.025  1.00  0.00     0.051 A 
HETATM    3  C9  UNL     1      50.209   2.225 100.422  1.00  0.00     0.054 A 
HETATM    4  C10 UNL     1      51.405   2.489 101.114  1.00  0.00     0.051 A 
HETATM    5  C11 UNL     1      52.539   2.805 100.359  1.00  0.00     0.031 A 
HETATM    6  C12 UNL     1      52.485   2.879  98.963  1.00  0.00     0.021 A 
HETATM    7 CL1  UNL     1      48.633   1.932  98.267  1.00  0.00    -0.083 Cl
ENDROOT
BRANCH   4   8
HETATM    8  N3  UNL     1      51.405   2.382 102.509  1.00  0.00    -0.188 N 
HETATM    9  H15 UNL     1      51.664   1.489 102.906  1.00  0.00     0.184 HD
BRANCH   8  10
HETATM   10  C13 UNL     1      51.037   3.234 103.546  1.00  0.00     0.727 A 
HETATM   11  N4  UNL     1      50.904   2.803 104.805  1.00  0.00    -0.062 NA
HETATM   12  C14 UNL     1      50.536   3.697 105.749  1.00  0.00     0.094 A 
HETATM   13  C15 UNL     1      50.291   5.019 105.453  1.00  0.00     0.053 A 
HETATM   14  C16 UNL     1      50.448   5.370 104.137  1.00  0.00     0.139 A 
HETATM   15  N5  UNL     1      50.816   4.505 103.176  1.00  0.00    -0.075 NA
BRANCH  12  16
HETATM   16  C17 UNL     1      50.408   3.118 107.099  1.00  0.00     0.034 A 
HETATM   17  C18 UNL     1      50.789   3.681 108.307  1.00  0.00     0.021 A 
HETATM   18  C19 UNL     1      50.509   2.847 109.428  1.00  0.00     0.008 A 
HETATM   19  C20 UNL     1      49.913   1.667 109.050  1.00  0.00     0.050 A 
HETATM   20  S1  UNL     1      49.696   1.573 107.358  1.00  0.00    -0.100 SA
ENDBRANCH  12  16
ENDBRANCH   8  10
ENDBRANCH   4   8
BRANCH   1  21
HETATM   21  C6  UNL     1      51.276   2.729  96.831  1.00  0.00     0.255 C 
HETATM   22  N2  UNL     1      50.775   3.879  96.239  1.00  0.00    -0.345 N 
HETATM   23  C3  UNL     1      50.697   3.941  94.779  1.00  0.00     0.156 C 
HETATM   24  C4  UNL     1      50.341   5.083  96.959  1.00  0.00     0.156 C 
HETATM   25  C2  UNL     1      49.601   4.910  94.296  1.00  0.00     0.291 C 
HETATM   26  N1  UNL     1      49.688   6.282  94.839  1.00  0.00     0.087 N 
HETATM   27  C1  UNL     1      50.475   6.344  96.086  1.00  0.00     0.291 C 
HETATM   28  C5  UNL     1      50.205   7.225  93.852  1.00  0.00     0.310 C 
HETATM   29  O1  UNL     1      51.752   1.786  96.203  1.00  0.00    -0.267 OA
ENDBRANCH   1  21
TORSDOF 4
ENDMDL
