MODEL 1
REMARK VINA RESULT:      -6.9      0.000      0.000
REMARK  11 active torsions:
REMARK  status: ('A' for Active; 'I' for Inactive)
REMARK    1  A    between atoms: C6_6  and  C7_7 
REMARK    2  A    between atoms: C7_7  and  C8_8 
REMARK    3  A    between atoms: C8_8  and  C9_9 
REMARK    4  A    between atoms: C8_8  and  N2_16 
REMARK    5  A    between atoms: C9_9  and  C10_10 
REMARK    6  A    between atoms: C9_9  and  O1_17 
REMARK       I    between atoms: C10_10  and  N1_11 
REMARK    7  A    between atoms: N1_11  and  C11_12 
REMARK    8  A    between atoms: C11_12  and  C12_13 
REMARK    9  A    between atoms: C11_12  and  C16_20 
REMARK   10  A    between atoms: C12_13  and  C13_14 
REMARK   11  A    between atoms: C16_20  and  O4_22 
ROOT
HETATM    1  C9  UNL     1      50.981   3.375 105.074  1.00  0.00     0.243 C 
ENDROOT
BRANCH   1   2
HETATM    2  C8  UNL     1      50.465   3.894 106.437  1.00  0.00     0.259 C 
BRANCH   2   3
HETATM    3  C7  UNL     1      51.438   3.458 107.560  1.00  0.00     0.077 C 
BRANCH   3   4
HETATM    4  C6  UNL     1      50.771   2.674 108.669  1.00  0.00    -0.056 A 
HETATM    5  C1  UNL     1      50.630   3.228 109.949  1.00  0.00     0.007 A 
HETATM    6  C2  UNL     1      50.025   2.498 110.972  1.00  0.00     0.001 A 
HETATM    7  C3  UNL     1      49.554   1.210 110.728  1.00  0.00     0.000 A 
HETATM    8  C4  UNL     1      49.687   0.650 109.459  1.00  0.00     0.001 A 
HETATM    9  C5  UNL     1      50.292   1.377 108.433  1.00  0.00     0.007 A 
ENDBRANCH   3   4
ENDBRANCH   2   3
BRANCH   2  10
HETATM   10  N2  UNL     1      50.372   5.380 106.384  1.00  0.00     0.086 N 
HETATM   11  H18 UNL     1      50.934   5.701 105.590  1.00  0.00     0.313 HD
HETATM   12  H19 UNL     1      50.863   5.752 107.203  1.00  0.00     0.313 HD
ENDBRANCH   2  10
ENDBRANCH   1   2
BRANCH   1  13
HETATM   13  C10 UNL     1      49.871   2.667 104.276  1.00  0.00     0.249 C 
HETATM   14  N1  UNL     1      49.597   1.402 104.745  1.00  0.00    -0.344 N 
HETATM   15  H10 UNL     1      50.189   1.042 105.493  1.00  0.00     0.163 HD
HETATM   16  O2  UNL     1      49.258   3.186 103.348  1.00  0.00    -0.271 OA
BRANCH  14  17
HETATM   17  C11 UNL     1      48.574   0.539 104.175  1.00  0.00     0.182 C 
BRANCH  17  18
HETATM   18  C12 UNL     1      49.133  -0.599 103.303  1.00  0.00     0.040 C 
BRANCH  18  19
HETATM   19  C13 UNL     1      49.593  -0.315 101.855  1.00  0.00    -0.020 C 
HETATM   20  C14 UNL     1      49.293  -1.445 100.875  1.00  0.00     0.009 C 
HETATM   21  C15 UNL     1      51.057   0.110 101.746  1.00  0.00     0.009 C 
ENDBRANCH  18  19
ENDBRANCH  17  18
BRANCH  17  22
HETATM   22  C16 UNL     1      47.635   0.061 105.281  1.00  0.00     0.163 C 
HETATM   23  O3  UNL     1      47.946  -0.198 106.434  1.00  0.00    -0.648 OA
BRANCH  22  24
HETATM   24  O4  UNL     1      46.351  -0.047 104.885  1.00  0.00    -0.775 OA
HETATM   25  H24 UNL     1      46.340  -0.854 104.329  1.00  0.00     0.167 HD
ENDBRANCH  22  24
ENDBRANCH  17  22
ENDBRANCH  14  17
ENDBRANCH   1  13
BRANCH   1  26
HETATM   26  O1  UNL     1      51.534   4.468 104.330  1.00  0.00    -0.384 OA
HETATM   27  H20 UNL     1      50.769   4.804 103.811  1.00  0.00     0.210 HD
ENDBRANCH   1  26
TORSDOF 11
ENDMDL
