MODEL 1
REMARK VINA RESULT:      -8.6      0.000      0.000
REMARK  7 active torsions:
REMARK  status: ('A' for Active; 'I' for Inactive)
REMARK    1  A    between atoms: C1_1  and  N1_7 
REMARK    2  A    between atoms: C4_4  and  C9_10 
REMARK    3  A    between atoms: C9_10  and  N2_11 
REMARK    4  A    between atoms: N2_11  and  C10_12 
REMARK       I    between atoms: N2_11  and  C11_13 
REMARK    5  A    between atoms: C11_13  and  C12_14 
REMARK    6  A    between atoms: C15_18  and  C18_21 
REMARK    7  A    between atoms: C28_31  and  O2_33 
ROOT
HETATM    1  N2  UNL     1      47.646  -1.901 106.442  1.00  0.00    -0.313 N 
HETATM    2  C11 UNL     1      47.617  -3.301 106.501  1.00  0.00     0.233 C 
HETATM    3  O1  UNL     1      46.859  -3.942 105.697  1.00  0.00    -0.272 OA
HETATM    4 CL1  UNL     1      46.484  -1.845 107.583  1.00  0.00    -0.145 Cl
HETATM    5  H37 UNL     1      47.458  -2.777 107.896  1.00  0.00     0.145 HD
ENDROOT
BRANCH   1   6
HETATM    6  C9  UNL     1      46.833  -1.217 105.451  1.00  0.00     0.170 C 
BRANCH   6   7
HETATM    7  C4  UNL     1      47.582  -0.730 104.297  1.00  0.00    -0.040 A 
HETATM    8  C3  UNL     1      47.579   0.634 104.002  1.00  0.00     0.011 A 
HETATM    9  C2  UNL     1      48.299   1.078 102.916  1.00  0.00     0.030 A 
HETATM   10  C1  UNL     1      49.020   0.208 102.118  1.00  0.00     0.029 A 
HETATM   11  C6  UNL     1      49.016  -1.146 102.419  1.00  0.00     0.030 A 
HETATM   12  C5  UNL     1      48.300  -1.579 103.496  1.00  0.00     0.011 A 
BRANCH  10  13
HETATM   13  N1  UNL     1      49.772   0.630 100.992  1.00  0.00    -0.390 N 
HETATM   14  C7  UNL     1      49.166   1.338  99.893  1.00  0.00     0.149 C 
HETATM   15  C8  UNL     1      51.191   0.326 100.972  1.00  0.00     0.149 C 
ENDBRANCH  10  13
ENDBRANCH   6   7
ENDBRANCH   1   6
BRANCH   1  16
HETATM   16  C10 UNL     1      48.448  -1.094 107.284  1.00  0.00     0.037 A 
HETATM   17  C13 UNL     1      49.513  -0.343 106.762  1.00  0.00     0.030 A 
HETATM   18  C14 UNL     1      50.277   0.445 107.589  1.00  0.00     0.010 A 
HETATM   19  C15 UNL     1      50.004   0.501 108.932  1.00  0.00    -0.055 A 
HETATM   20  C16 UNL     1      48.966  -0.229 109.447  1.00  0.00     0.010 A 
HETATM   21  C17 UNL     1      48.200  -1.018 108.626  1.00  0.00     0.030 A 
BRANCH  19  22
HETATM   22  C18 UNL     1      50.844   1.366 109.818  1.00  0.00     0.010 C 
HETATM   23  C19 UNL     1      51.844   2.142 109.021  1.00  0.00     0.015 C 
HETATM   24  C20 UNL     1      49.940   2.293 110.634  1.00  0.00     0.015 C 
ENDBRANCH  19  22
ENDBRANCH   1  16
BRANCH   2  25
HETATM   25  C12 UNL     1      48.448  -4.049 107.472  1.00  0.00     0.112 C 
HETATM   26  C21 UNL     1      47.545  -4.744 108.505  1.00  0.00     0.019 C 
HETATM   27  C22 UNL     1      46.345  -5.193 107.742  1.00  0.00     0.006 C 
HETATM   28  C23 UNL     1      46.749  -6.210 106.713  1.00  0.00     0.039 C 
HETATM   29  C24 UNL     1      48.201  -6.251 106.417  1.00  0.00    -0.051 A 
HETATM   30  C25 UNL     1      49.059  -5.236 106.756  1.00  0.00    -0.036 A 
HETATM   31  C26 UNL     1      48.711  -7.385 105.753  1.00  0.00     0.010 A 
HETATM   32  C29 UNL     1      50.393  -5.325 106.456  1.00  0.00     0.045 A 
HETATM   33  C28 UNL     1      50.904  -6.451 105.797  1.00  0.00     0.068 A 
HETATM   34  C27 UNL     1      50.053  -7.479 105.448  1.00  0.00     0.037 A 
BRANCH  33  35
HETATM   35  O2  UNL     1      52.267  -6.489 105.516  1.00  0.00    -0.356 OA
HETATM   36  C30 UNL     1      52.736  -6.680 104.185  1.00  0.00     0.210 C 
ENDBRANCH  33  35
ENDBRANCH   2  25
TORSDOF 7
ENDMDL
