MODEL 1
REMARK VINA RESULT:      -9.6      0.000      0.000
REMARK  7 active torsions:
REMARK  status: ('A' for Active; 'I' for Inactive)
REMARK    1  A    between atoms: C3_3  and  C7_8 
REMARK    2  A    between atoms: C5_5  and  N1_11 
REMARK    3  A    between atoms: C7_8  and  O1_9 
REMARK    4  A    between atoms: N1_11  and  C8_12 
REMARK    5  A    between atoms: C11_18  and  C14_22 
REMARK    6  A    between atoms: C13_20  and  C16_24 
REMARK    7  A    between atoms: C21_29  and  N3_32 
ROOT
HETATM    1  C8  UNL     1      51.779   4.788  99.708  1.00  0.00     0.175 A 
HETATM    2  S1  UNL     1      52.205   3.089  99.762  1.00  0.00    -0.046 SA
HETATM    3  C9  UNL     1      51.174   2.863 101.140  1.00  0.00     0.081 A 
HETATM    4  C10 UNL     1      50.505   4.171 101.440  1.00  0.00     0.286 A 
HETATM    5  N2  UNL     1      50.937   5.173 100.601  1.00  0.00    -0.184 NA
HETATM    6  O3  UNL     1      49.670   4.338 102.311  1.00  0.00    -0.265 OA
HETATM    7  C11 UNL     1      51.066   1.663 101.725  1.00  0.00     0.061 C 
ENDROOT
BRANCH   7   8
HETATM    8  C14 UNL     1      50.284   1.320 102.861  1.00  0.00     0.077 A 
HETATM    9  O4  UNL     1      50.587   1.841 104.101  1.00  0.00    -0.310 OA
HETATM   10  C13 UNL     1      49.687   1.383 105.019  1.00  0.00     0.088 A 
HETATM   11  C12 UNL     1      48.762   0.589 104.383  1.00  0.00     0.041 A 
HETATM   12  C15 UNL     1      49.132   0.562 103.015  1.00  0.00     0.040 A 
BRANCH  10  13
HETATM   13  C16 UNL     1      49.902   1.840 106.389  1.00  0.00     0.031 A 
HETATM   14  C17 UNL     1      49.675   0.947 107.454  1.00  0.00     0.024 A 
HETATM   15  C18 UNL     1      49.886   1.314 108.800  1.00  0.00    -0.055 A 
HETATM   16  C19 UNL     1      50.331   2.615 109.107  1.00  0.00    -0.054 A 
HETATM   17  C23 UNL     1      49.621   0.302 109.883  1.00  0.00     0.049 C 
HETATM   18  C20 UNL     1      50.559   3.518 108.062  1.00  0.00     0.044 A 
HETATM   19  C22 UNL     1      50.569   3.050 110.527  1.00  0.00     0.049 C 
HETATM   20  C21 UNL     1      50.342   3.121 106.733  1.00  0.00     0.116 A 
BRANCH  20  21
HETATM   21  N3  UNL     1      50.562   4.123 105.717  1.00  0.00    -0.115 N 
HETATM   22  O5  UNL     1      49.648   4.932 105.514  1.00  0.00    -0.532 OA
HETATM   23  O6  UNL     1      51.664   4.113 105.153  1.00  0.00    -0.532 OA
ENDBRANCH  20  21
ENDBRANCH  10  13
ENDBRANCH   7   8
BRANCH   1  24
HETATM   24  N1  UNL     1      52.411   5.495  98.728  1.00  0.00    -0.335 N 
HETATM   25  H5  UNL     1      53.044   4.958  98.150  1.00  0.00     0.168 HD
BRANCH  24  26
HETATM   26  C5  UNL     1      52.280   6.850  98.380  1.00  0.00     0.035 A 
HETATM   27  C4  UNL     1      52.535   7.912  99.252  1.00  0.00     0.049 A 
HETATM   28  C3  UNL     1      52.423   9.246  98.823  1.00  0.00     0.061 A 
HETATM   29  C2  UNL     1      52.036   9.541  97.517  1.00  0.00     0.051 A 
HETATM   30  C1  UNL     1      51.782   8.491  96.633  1.00  0.00     0.027 A 
HETATM   31 CL1  UNL     1      51.801  11.151  96.943  1.00  0.00    -0.083 Cl
HETATM   32  C6  UNL     1      51.910   7.164  97.060  1.00  0.00     0.031 A 
BRANCH  28  33
HETATM   33  C7  UNL     1      52.700  10.293  99.813  1.00  0.00     0.177 C 
HETATM   34  O2  UNL     1      51.969  11.226 100.086  1.00  0.00    -0.646 OA
BRANCH  33  35
HETATM   35  O1  UNL     1      53.844  10.049 100.471  1.00  0.00    -0.773 OA
HETATM   36  H4  UNL     1      53.589  10.070 101.418  1.00  0.00     0.167 HD
ENDBRANCH  33  35
ENDBRANCH  28  33
ENDBRANCH  24  26
ENDBRANCH   1  24
TORSDOF 7
ENDMDL
