MODEL 1
REMARK VINA RESULT:      -7.1      0.000      0.000
REMARK  7 active torsions:
REMARK  status: ('A' for Active; 'I' for Inactive)
REMARK    1  A    between atoms: C1_1  and  O1_10 
REMARK    2  A    between atoms: C7_8  and  S1_14 
REMARK    3  A    between atoms: O1_10  and  C8_11 
REMARK    4  A    between atoms: S1_14  and  C9_15 
REMARK    5  A    between atoms: C9_15  and  C10_17 
REMARK    6  A    between atoms: C11_18  and  O3_23 
REMARK    7  A    between atoms: C12_19  and  O4_25 
ROOT
HETATM    1  C1  UNL     1      49.146   0.061 108.971  1.00  0.00     0.077 A 
HETATM    2  C2  UNL     1      49.695   0.934 109.917  1.00  0.00     0.039 A 
HETATM    3  C3  UNL     1      50.239   2.166 109.529  1.00  0.00     0.037 A 
HETATM    4  C4  UNL     1      50.222   2.519 108.173  1.00  0.00     0.086 A 
HETATM    5  C5  UNL     1      49.650   1.645 107.255  1.00  0.00     0.066 A 
HETATM    6  C6  UNL     1      49.095   0.416 107.615  1.00  0.00     0.069 A 
HETATM    7  N1  UNL     1      50.708   3.646 107.552  1.00  0.00    -0.221 NA
HETATM    8  C7  UNL     1      50.438   3.468 106.276  1.00  0.00     0.198 A 
HETATM    9  N2  UNL     1      49.784   2.287 106.054  1.00  0.00    -0.331 N 
HETATM   10  H4  UNL     1      49.498   1.953 105.142  1.00  0.00     0.168 HD
ENDROOT
BRANCH   8  11
HETATM   11  S1  UNL     1      50.866   4.606 104.945  1.00  0.00     0.092 S 
HETATM   12  O2  UNL     1      50.448   5.957 105.460  1.00  0.00    -0.249 OA
BRANCH  11  13
HETATM   13  C9  UNL     1      49.629   4.007 103.752  1.00  0.00     0.179 C 
BRANCH  13  14
HETATM   14  C10 UNL     1      50.230   3.134 102.676  1.00  0.00     0.082 A 
HETATM   15  C11 UNL     1      49.920   1.770 102.611  1.00  0.00     0.127 A 
HETATM   16  C12 UNL     1      50.563   0.968 101.656  1.00  0.00     0.104 A 
HETATM   17  C13 UNL     1      51.452   1.569 100.768  1.00  0.00     0.059 A 
HETATM   18  C14 UNL     1      51.707   2.923 100.901  1.00  0.00     0.120 A 
HETATM   19  N3  UNL     1      51.139   3.705 101.840  1.00  0.00    -0.262 NA
BRANCH  15  20
HETATM   20  O3  UNL     1      49.057   1.256 103.549  1.00  0.00    -0.351 OA
HETATM   21  C15 UNL     1      47.702   1.283 103.108  1.00  0.00     0.210 C 
ENDBRANCH  15  20
BRANCH  16  22
HETATM   22  O4  UNL     1      50.274  -0.371 101.673  1.00  0.00    -0.353 OA
HETATM   23  C16 UNL     1      49.372  -0.862 100.687  1.00  0.00     0.210 C 
ENDBRANCH  16  22
ENDBRANCH  13  14
ENDBRANCH  11  13
ENDBRANCH   8  11
BRANCH   1  24
HETATM   24  O1  UNL     1      48.599  -1.165 109.248  1.00  0.00    -0.290 OA
BRANCH  24  25
HETATM   25  C8  UNL     1      47.814  -1.744 108.219  1.00  0.00     0.505 C 
HETATM   26  F1  UNL     1      46.619  -2.080 108.765  1.00  0.00    -0.184 F 
HETATM   27  F2  UNL     1      48.394  -2.899 107.815  1.00  0.00    -0.184 F 
ENDBRANCH  24  25
ENDBRANCH   1  24
TORSDOF 7
ENDMDL
