MODEL 1
REMARK VINA RESULT:      -9.9      0.000      0.000
REMARK  5 active torsions:
REMARK  status: ('A' for Active; 'I' for Inactive)
REMARK    1  A    between atoms: C5_5  and  C7_8 
REMARK    2  A    between atoms: C7_8  and  C8_9 
REMARK    3  A    between atoms: N1_19  and  C19_22 
REMARK    4  A    between atoms: C19_22  and  C20_23 
REMARK    5  A    between atoms: C20_23  and  C21_24 
ROOT
HETATM    1  C7  UNL     1      49.468   0.859 106.500  1.00  0.00    -0.013 C 
HETATM    2  C9  UNL     1      49.992   1.410 105.371  1.00  0.00    -0.065 C 
HETATM    3  C15 UNL     1      50.850   2.672 105.371  1.00  0.00     0.065 C 
HETATM    4  C16 UNL     1      50.876   3.356 103.993  1.00  0.00     0.276 C 
HETATM    5  N1  UNL     1      51.438   2.480 102.959  1.00  0.00     0.089 N 
HETATM    6  C17 UNL     1      51.029   1.074 103.078  1.00  0.00     0.276 C 
HETATM    7  C18 UNL     1      49.798   0.838 103.971  1.00  0.00     0.065 C 
ENDROOT
BRANCH   1   8
HETATM    8  C5  UNL     1      48.593  -0.336 106.399  1.00  0.00    -0.025 A 
HETATM    9  C4  UNL     1      47.211  -0.175 106.218  1.00  0.00     0.015 A 
HETATM   10  C3  UNL     1      46.382  -1.295 106.116  1.00  0.00     0.043 A 
HETATM   11  C2  UNL     1      46.937  -2.567 106.188  1.00  0.00     0.116 A 
HETATM   12  C1  UNL     1      48.306  -2.745 106.361  1.00  0.00     0.043 A 
HETATM   13  F1  UNL     1      46.143  -3.640 106.090  1.00  0.00    -0.206 F 
HETATM   14  C6  UNL     1      49.135  -1.628 106.467  1.00  0.00     0.015 A 
ENDBRANCH   1   8
BRANCH   1  15
HETATM   15  C8  UNL     1      49.778   1.447 107.825  1.00  0.00    -0.025 A 
HETATM   16  C10 UNL     1      50.109   2.807 107.942  1.00  0.00     0.015 A 
HETATM   17  C11 UNL     1      50.417   3.350 109.189  1.00  0.00     0.043 A 
HETATM   18  C12 UNL     1      50.399   2.536 110.315  1.00  0.00     0.116 A 
HETATM   19  C13 UNL     1      50.078   1.186 110.219  1.00  0.00     0.043 A 
HETATM   20  F2  UNL     1      50.699   3.058 111.511  1.00  0.00    -0.206 F 
HETATM   21  C14 UNL     1      49.769   0.640 108.972  1.00  0.00     0.015 A 
ENDBRANCH   1  15
BRANCH   5  22
HETATM   22  C19 UNL     1      51.353   3.035 101.603  1.00  0.00     0.277 C 
BRANCH  22  23
HETATM   23  C20 UNL     1      50.069   3.819 101.268  1.00  0.00     0.076 C 
BRANCH  23  24
HETATM   24  C21 UNL     1      49.037   2.936 100.607  1.00  0.00     0.036 A 
HETATM   25  C22 UNL     1      49.124   2.392  99.374  1.00  0.00     0.045 A 
HETATM   26  N2  UNL     1      48.168   1.560  98.830  1.00  0.00    -0.228 NA
HETATM   27  C27 UNL     1      50.271   2.660  98.434  1.00  0.00     0.071 C 
HETATM   28  C23 UNL     1      47.143   1.310  99.566  1.00  0.00     0.180 A 
HETATM   29  N3  UNL     1      46.917   1.790 100.829  1.00  0.00    -0.267 N 
HETATM   30  S1  UNL     1      45.798   0.287  99.085  1.00  0.00    -0.062 SA
HETATM   31  C24 UNL     1      47.825   2.625 101.430  1.00  0.00     0.262 A 
HETATM   32  C26 UNL     1      45.732   1.374 101.397  1.00  0.00     0.110 A 
HETATM   33  O1  UNL     1      47.685   3.109 102.551  1.00  0.00    -0.267 OA
HETATM   34  C25 UNL     1      45.007   0.569 100.610  1.00  0.00     0.071 A 
ENDBRANCH  23  24
ENDBRANCH  22  23
ENDBRANCH   5  22
TORSDOF 5
ENDMDL
