MODEL 1
REMARK VINA RESULT:      -7.0      0.000      0.000
REMARK  15 active torsions:
REMARK  status: ('A' for Active; 'I' for Inactive)
REMARK    1  A    between atoms: C1_1  and  C5_5 
REMARK    2  A    between atoms: C2_2  and  C14_14 
REMARK    3  A    between atoms: C3_3  and  C6_6 
REMARK    4  A    between atoms: C4_4  and  C5_5 
REMARK    5  A    between atoms: C6_6  and  C7_7 
REMARK    6  A    between atoms: C8_8  and  C9_9 
REMARK    7  A    between atoms: C10_10  and  C11_11 
REMARK    8  A    between atoms: C11_11  and  C12_12 
REMARK    9  A    between atoms: C12_12  and  C13_13 
REMARK   10  A    between atoms: C13_13  and  C22_23 
REMARK   11  A    between atoms: C14_14  and  C15_15 
REMARK   12  A    between atoms: C16_16  and  C17_17 
REMARK   13  A    between atoms: C17_17  and  C18_18 
REMARK   14  A    between atoms: C19_19  and  C20_20 
REMARK   15  A    between atoms: C22_23  and  O3_25 
ROOT
HETATM    1  C3  UNL     1      49.614   0.726 110.081  1.00  0.00    -0.027 C 
HETATM    2  C4  UNL     1      49.435   0.109 108.900  1.00  0.00    -0.027 C 
ENDROOT
BRANCH   1   3
HETATM    3  C6  UNL     1      49.730   2.203 110.340  1.00  0.00     0.054 C 
BRANCH   3   4
HETATM    4  C7  UNL     1      51.170   2.611 110.454  1.00  0.00    -0.023 C 
HETATM    5  C8  UNL     1      51.996   3.073 109.502  1.00  0.00    -0.004 C 
BRANCH   5   6
HETATM    6  C9  UNL     1      51.681   3.278 108.104  1.00  0.00     0.003 C 
HETATM    7  C10 UNL     1      50.810   4.215 107.703  1.00  0.00     0.050 C 
BRANCH   7   8
HETATM    8  C11 UNL     1      50.447   4.508 106.289  1.00  0.00     0.149 C 
HETATM    9  O1  UNL     1      50.212   5.677 105.982  1.00  0.00    -0.293 OA
BRANCH   8  10
HETATM   10  C12 UNL     1      50.406   3.407 105.256  1.00  0.00     0.093 C 
BRANCH  10  11
HETATM   11  C13 UNL     1      50.858   3.930 103.899  1.00  0.00     0.117 C 
BRANCH  11  12
HETATM   12  C22 UNL     1      49.713   4.198 102.970  1.00  0.00     0.139 C 
HETATM   13  O2  UNL     1      48.533   4.056 103.238  1.00  0.00    -0.650 OA
BRANCH  12  14
HETATM   14  O3  UNL     1      50.083   4.722 101.786  1.00  0.00    -0.776 OA
HETATM   15  H30 UNL     1      49.710   5.629 101.805  1.00  0.00     0.167 HD
ENDBRANCH  12  14
ENDBRANCH  11  12
ENDBRANCH  10  11
ENDBRANCH   8  10
ENDBRANCH   7   8
ENDBRANCH   5   6
ENDBRANCH   3   4
ENDBRANCH   1   3
BRANCH   2  16
HETATM   16  C5  UNL     1      49.305   0.740 107.539  1.00  0.00     0.053 C 
BRANCH  16  17
HETATM   17  C1  UNL     1      49.576  -0.264 106.457  1.00  0.00    -0.027 C 
HETATM   18  C2  UNL     1      48.764  -1.240 106.014  1.00  0.00    -0.027 C 
BRANCH  18  19
HETATM   19  C14 UNL     1      47.365  -1.552 106.464  1.00  0.00     0.053 C 
BRANCH  19  20
HETATM   20  C15 UNL     1      46.418  -0.448 106.091  1.00  0.00    -0.027 C 
HETATM   21  C16 UNL     1      46.177   0.042 104.859  1.00  0.00    -0.027 C 
BRANCH  21  22
HETATM   22  C17 UNL     1      46.759  -0.437 103.560  1.00  0.00     0.053 C 
BRANCH  22  23
HETATM   23  C18 UNL     1      47.455   0.678 102.830  1.00  0.00    -0.027 C 
HETATM   24  C19 UNL     1      48.741   0.742 102.447  1.00  0.00    -0.031 C 
BRANCH  24  25
HETATM   25  C20 UNL     1      49.818  -0.288 102.655  1.00  0.00     0.022 C 
HETATM   26  C21 UNL     1      51.135   0.363 103.041  1.00  0.00     0.009 C 
ENDBRANCH  24  25
ENDBRANCH  22  23
ENDBRANCH  21  22
ENDBRANCH  19  20
ENDBRANCH  18  19
ENDBRANCH  16  17
ENDBRANCH   2  16
TORSDOF 15
ENDMDL
