MODEL 1
REMARK VINA RESULT:      -8.8      0.000      0.000
REMARK  6 active torsions:
REMARK  status: ('A' for Active; 'I' for Inactive)
REMARK    1  A    between atoms: C1_1  and  N4_11 
REMARK    2  A    between atoms: C6_8  and  C9_14 
REMARK    3  A    between atoms: N3_10  and  C21_28 
REMARK    4  A    between atoms: C12_17  and  C15_20 
REMARK    5  A    between atoms: C21_28  and  C22_29 
REMARK    6  A    between atoms: C24_32  and  N6_35 
ROOT
HETATM    1  C1  UNL     1      44.649  -6.588 103.016  1.00  0.00     0.203 A 
HETATM    2  N1  UNL     1      43.997  -5.421 102.963  1.00  0.00    -0.230 NA
HETATM    3  C2  UNL     1      44.562  -4.375 103.595  1.00  0.00     0.135 A 
HETATM    4  C3  UNL     1      45.750  -4.453 104.284  1.00  0.00     0.029 A 
HETATM    5  C4  UNL     1      46.344  -5.700 104.290  1.00  0.00     0.147 A 
HETATM    6  N2  UNL     1      45.805  -6.767 103.665  1.00  0.00    -0.200 NA
HETATM    7  C5  UNL     1      46.344  -3.325 104.982  1.00  0.00     0.034 A 
HETATM    8  C6  UNL     1      47.489  -3.497 105.663  1.00  0.00     0.045 A 
HETATM    9  C7  UNL     1      48.170  -4.836 105.692  1.00  0.00     0.260 A 
HETATM   10  N3  UNL     1      47.568  -5.866 104.985  1.00  0.00    -0.293 N 
HETATM   11  O1  UNL     1      49.227  -4.962 106.310  1.00  0.00    -0.267 OA
ENDROOT
BRANCH   8  12
HETATM   12  C9  UNL     1      48.059  -2.364 106.411  1.00  0.00     0.001 A 
HETATM   13  C10 UNL     1      47.843  -2.185 107.785  1.00  0.00     0.046 A 
HETATM   14  C11 UNL     1      48.408  -1.095 108.463  1.00  0.00     0.038 A 
HETATM   15 CL1  UNL     1      46.866  -3.281 108.702  1.00  0.00    -0.083 Cl
HETATM   16  C12 UNL     1      49.200  -0.149 107.793  1.00  0.00    -0.006 A 
HETATM   17  C13 UNL     1      49.414  -0.349 106.417  1.00  0.00     0.014 A 
HETATM   18  C14 UNL     1      48.854  -1.434 105.733  1.00  0.00     0.015 A 
BRANCH  16  19
HETATM   19  C15 UNL     1      49.804   1.007 108.488  1.00  0.00     0.067 A 
HETATM   20  N5  UNL     1      50.046   2.097 107.713  1.00  0.00    -0.253 NA
HETATM   21  C16 UNL     1      50.610   3.189 108.281  1.00  0.00     0.031 A 
HETATM   22  C17 UNL     1      50.938   3.246 109.629  1.00  0.00     0.027 A 
HETATM   23  C20 UNL     1      50.867   4.369 107.392  1.00  0.00     0.070 C 
HETATM   24  C18 UNL     1      50.675   2.138 110.424  1.00  0.00     0.004 A 
HETATM   25  C19 UNL     1      50.103   1.006 109.850  1.00  0.00     0.032 A 
ENDBRANCH  16  19
ENDBRANCH   8  12
BRANCH  10  26
HETATM   26  C21 UNL     1      48.142  -7.211 105.061  1.00  0.00     0.194 C 
BRANCH  26  27
HETATM   27  C22 UNL     1      49.075  -7.549 103.879  1.00  0.00     0.277 C 
HETATM   28  O2  UNL     1      49.315  -8.963 103.829  1.00  0.00    -0.357 OA
HETATM   29  C23 UNL     1      50.450  -9.259 103.029  1.00  0.00     0.208 C 
HETATM   30  C24 UNL     1      51.719  -8.700 103.696  1.00  0.00     0.265 C 
HETATM   31  C25 UNL     1      51.330  -7.516 104.593  1.00  0.00     0.208 C 
HETATM   32  O3  UNL     1      50.280  -6.772 103.972  1.00  0.00    -0.357 OA
BRANCH  30  33
HETATM   33  N6  UNL     1      52.726  -8.312 102.691  1.00  0.00     0.087 N 
HETATM   34  H24 UNL     1      52.412  -8.591 101.763  1.00  0.00     0.313 HD
HETATM   35  H25 UNL     1      52.804  -7.294 102.680  1.00  0.00     0.313 HD
ENDBRANCH  30  33
ENDBRANCH  26  27
ENDBRANCH  10  26
BRANCH   1  36
HETATM   36  N4  UNL     1      44.137  -7.710 102.382  1.00  0.00    -0.265 NA
HETATM   37  C8  UNL     1      42.964  -8.269 103.012  1.00  0.00     0.116 C 
HETATM   38  H3  UNL     1      44.913  -8.351 102.263  1.00  0.00     0.130 HD
ENDBRANCH   1  36
TORSDOF 6
ENDMDL
