MODEL 1
REMARK VINA RESULT:      -8.9      0.000      0.000
REMARK  4 active torsions:
REMARK  status: ('A' for Active; 'I' for Inactive)
REMARK       I    between atoms: N2_4  and  C7_10 
REMARK    1  A    between atoms: C6_9  and  C8_13 
REMARK    2  A    between atoms: C6_9  and  C14_19 
REMARK       I    between atoms: C7_10  and  N3_12 
REMARK    3  A    between atoms: N3_12  and  C20_26 
REMARK    4  A    between atoms: C20_26  and  C21_27 
ROOT
HETATM    1  C1  UNL     1      47.669  -0.363 103.945  1.00  0.00     0.152 C 
HETATM    2  C2  UNL     1      48.231  -1.782 103.838  1.00  0.00     0.156 C 
HETATM    3  N1  UNL     1      46.671  -0.072 102.957  1.00  0.00    -0.316 N 
HETATM    4  N2  UNL     1      47.145  -2.778 103.664  1.00  0.00    -0.331 N 
HETATM    5  C3  UNL     1      46.147  -2.444 102.626  1.00  0.00     0.147 C 
HETATM    6  C4  UNL     1      45.592  -1.019 102.765  1.00  0.00     0.148 C 
HETATM    7  O1  UNL     1      47.633   1.891 103.458  1.00  0.00    -0.280 OA
HETATM    8  C5  UNL     1      46.547   1.291 102.870  1.00  0.00     0.364 C 
HETATM    9  C6  UNL     1      48.601   0.863 103.839  1.00  0.00     0.149 C 
HETATM   10  C7  UNL     1      47.343  -4.134 103.901  1.00  0.00     0.318 C 
HETATM   11  O2  UNL     1      46.725  -5.013 103.307  1.00  0.00    -0.247 OA
HETATM   12  N3  UNL     1      48.285  -4.409 104.857  1.00  0.00    -0.339 N 
HETATM   13  O3  UNL     1      45.611   1.902 102.384  1.00  0.00    -0.238 OA
HETATM   14  H8  UNL     1      48.307  -3.746 105.616  1.00  0.00     0.164 HD
ENDROOT
BRANCH  12  15
HETATM   15  C20 UNL     1      48.563  -5.776 105.246  1.00  0.00     0.162 C 
BRANCH  15  16
HETATM   16  C21 UNL     1      49.891  -6.239 104.698  1.00  0.00    -0.040 A 
HETATM   17  C22 UNL     1      51.008  -6.337 105.544  1.00  0.00     0.012 A 
HETATM   18  C23 UNL     1      52.244  -6.740 105.037  1.00  0.00     0.043 A 
HETATM   19  C24 UNL     1      52.366  -7.042 103.687  1.00  0.00     0.116 A 
HETATM   20  C25 UNL     1      51.274  -6.945 102.831  1.00  0.00     0.043 A 
HETATM   21  F1  UNL     1      53.553  -7.428 103.199  1.00  0.00    -0.206 F 
HETATM   22  C26 UNL     1      50.037  -6.541 103.336  1.00  0.00     0.012 A 
ENDBRANCH  15  16
ENDBRANCH  12  15
BRANCH   9  23
HETATM   23  C8  UNL     1      49.669   0.926 102.730  1.00  0.00    -0.016 A 
HETATM   24  C9  UNL     1      50.934   0.332 102.921  1.00  0.00     0.011 A 
HETATM   25  C10 UNL     1      51.930   0.395 101.943  1.00  0.00     0.001 A 
HETATM   26  C11 UNL     1      51.700   1.080 100.757  1.00  0.00     0.000 A 
HETATM   27  C12 UNL     1      50.480   1.717 100.559  1.00  0.00     0.001 A 
HETATM   28  C13 UNL     1      49.483   1.653 101.539  1.00  0.00     0.011 A 
ENDBRANCH   9  23
BRANCH   9  29
HETATM   29  C14 UNL     1      49.153   1.144 105.251  1.00  0.00    -0.016 A 
HETATM   30  C15 UNL     1      48.983   0.202 106.285  1.00  0.00     0.011 A 
HETATM   31  C16 UNL     1      49.453   0.459 107.574  1.00  0.00     0.001 A 
HETATM   32  C17 UNL     1      50.097   1.661 107.855  1.00  0.00     0.000 A 
HETATM   33  C18 UNL     1      50.274   2.605 106.847  1.00  0.00     0.001 A 
HETATM   34  C19 UNL     1      49.806   2.352 105.555  1.00  0.00     0.011 A 
ENDBRANCH   9  29
TORSDOF 4
ENDMDL
