MODEL 1
REMARK VINA RESULT:      -7.8      0.000      0.000
REMARK  9 active torsions:
REMARK  status: ('A' for Active; 'I' for Inactive)
REMARK    1  A    between atoms: C1_1  and  O4_15 
REMARK    2  A    between atoms: C2_2  and  N1_16 
REMARK    3  A    between atoms: C4_4  and  N2_17 
REMARK    4  A    between atoms: C6_6  and  O3_14 
REMARK    5  A    between atoms: C8_10  and  C12_18 
REMARK    6  A    between atoms: C9_11  and  O5_20 
REMARK    7  A    between atoms: C10_12  and  O6_21 
REMARK    8  A    between atoms: C11_13  and  N4_22 
REMARK    9  A    between atoms: C12_18  and  N3_19 
ROOT
HETATM    1  C1  UNL     1      50.392   5.287 104.143  1.00  0.00     0.182 C 
HETATM    2  C2  UNL     1      50.619   4.321 103.048  1.00  0.00     0.251 C 
HETATM    3  C3  UNL     1      51.053   2.952 103.513  1.00  0.00     0.076 C 
HETATM    4  C4  UNL     1      50.054   2.513 104.553  1.00  0.00     0.251 C 
HETATM    5  C5  UNL     1      50.207   3.363 105.779  1.00  0.00     0.189 A 
HETATM    6  C6  UNL     1      50.553   4.783 105.526  1.00  0.00     0.180 C 
HETATM    7  O1  UNL     1      51.179   2.760 106.581  1.00  0.00    -0.349 OA
HETATM    8  C7  UNL     1      50.674   2.283 107.758  1.00  0.00     0.296 A 
HETATM    9  O2  UNL     1      50.829   0.893 107.887  1.00  0.00    -0.349 OA
HETATM   10  C8  UNL     1      50.034   0.400 108.888  1.00  0.00     0.183 C 
HETATM   11  C9  UNL     1      49.476   1.422 109.811  1.00  0.00     0.179 C 
HETATM   12  C10 UNL     1      50.410   2.539 110.151  1.00  0.00     0.187 C 
HETATM   13  C11 UNL     1      51.336   2.882 108.984  1.00  0.00     0.303 C 
HETATM   14 CL1  UNL     1      50.034   2.351 107.363  1.00  0.00    -0.145 Cl
HETATM   15 CL2  UNL     1      50.034   2.354 107.360  1.00  0.00    -0.145 Cl
HETATM   16 CL3  UNL     1      50.034   2.349 107.368  1.00  0.00    -0.145 Cl
HETATM   17 CL4  UNL     1      50.034   2.352 107.362  1.00  0.00    -0.145 Cl
HETATM   18  H27 UNL     1      50.074   3.025 106.166  1.00  0.00     0.145 HD
HETATM   19  H28 UNL     1      50.075   3.024 106.170  1.00  0.00     0.145 HD
HETATM   20  H29 UNL     1      50.075   3.028 106.162  1.00  0.00     0.145 HD
HETATM   21  H30 UNL     1      50.075   3.025 106.167  1.00  0.00     0.145 HD
ENDROOT
BRANCH   4  22
HETATM   22  N2  UNL     1      48.697   2.572 104.100  1.00  0.00     0.085 N 
HETATM   23  H17 UNL     1      48.159   3.224 104.724  1.00  0.00     0.313 HD
HETATM   24  H18 UNL     1      48.673   3.034 103.142  1.00  0.00     0.313 HD
ENDBRANCH   4  22
BRANCH   6  25
HETATM   25  O3  UNL     1      49.766   5.596 106.373  1.00  0.00    -0.390 OA
HETATM   26  H13 UNL     1      48.798   5.445 106.163  1.00  0.00     0.210 HD
ENDBRANCH   6  25
BRANCH   1  27
HETATM   27  O4  UNL     1      51.270   6.378 103.930  1.00  0.00    -0.391 OA
HETATM   28  H14 UNL     1      51.500   6.483 102.985  1.00  0.00     0.210 HD
ENDBRANCH   1  27
BRANCH   2  29
HETATM   29  N1  UNL     1      49.411   4.124 102.248  1.00  0.00     0.085 N 
HETATM   30  H15 UNL     1      49.460   3.247 101.692  1.00  0.00     0.313 HD
HETATM   31  H16 UNL     1      48.550   4.206 102.826  1.00  0.00     0.313 HD
ENDBRANCH   2  29
BRANCH  13  32
HETATM   32  N4  UNL     1      52.601   2.240 109.255  1.00  0.00     0.090 N 
HETATM   33  H25 UNL     1      53.054   1.942 108.363  1.00  0.00     0.313 HD
HETATM   34  H26 UNL     1      53.226   2.849 109.836  1.00  0.00     0.313 HD
ENDBRANCH  13  32
BRANCH  10  35
HETATM   35  C12 UNL     1      48.862  -0.317 108.209  1.00  0.00     0.301 C 
BRANCH  35  36
HETATM   36  N3  UNL     1      48.243  -1.262 109.123  1.00  0.00     0.080 N 
HETATM   37  H21 UNL     1      47.242  -1.404 108.823  1.00  0.00     0.312 HD
HETATM   38  H22 UNL     1      48.716  -2.178 108.957  1.00  0.00     0.312 HD
ENDBRANCH  35  36
ENDBRANCH  10  35
BRANCH  12  39
HETATM   39  O6  UNL     1      49.618   3.691 110.350  1.00  0.00    -0.391 OA
HETATM   40  H24 UNL     1      50.196   4.477 110.590  1.00  0.00     0.210 HD
ENDBRANCH  12  39
BRANCH  11  41
HETATM   41  O5  UNL     1      49.137   0.788 111.028  1.00  0.00    -0.390 OA
HETATM   42  H23 UNL     1      48.386   0.151 110.808  1.00  0.00     0.210 HD
ENDBRANCH  11  41
TORSDOF 9
ENDMDL
