MODEL 1
REMARK VINA RESULT:      -8.5      0.000      0.000
REMARK  6 active torsions:
REMARK  status: ('A' for Active; 'I' for Inactive)
REMARK    1  A    between atoms: C2_2  and  O1_27 
REMARK    2  A    between atoms: C17_17  and  C18_18 
REMARK    3  A    between atoms: C18_18  and  C19_19 
REMARK    4  A    between atoms: C19_19  and  C20_20 
REMARK    5  A    between atoms: C20_20  and  C21_21 
REMARK    6  A    between atoms: C21_21  and  C25_25 
ROOT
HETATM    1  C1  UNL     1      48.118   4.718  96.882  1.00  0.00     0.033 C 
HETATM    2  C2  UNL     1      49.500   4.987  96.296  1.00  0.00     0.122 C 
HETATM    3  C3  UNL     1      50.377   3.737  96.366  1.00  0.00     0.066 C 
HETATM    4  C4  UNL     1      50.445   3.165  97.765  1.00  0.00    -0.072 C 
HETATM    5  C5  UNL     1      49.109   2.938  98.489  1.00  0.00    -0.017 C 
HETATM    6  C6  UNL     1      48.214   4.201  98.318  1.00  0.00     0.016 C 
HETATM    7  C7  UNL     1      51.637   2.884  98.324  1.00  0.00    -0.023 C 
HETATM    8  C8  UNL     1      51.819   2.293  99.687  1.00  0.00     0.033 C 
HETATM    9  C9  UNL     1      50.525   1.727 100.293  1.00  0.00    -0.001 C 
HETATM   10  C10 UNL     1      49.345   2.703 100.035  1.00  0.00     0.003 C 
HETATM   11  C11 UNL     1      50.685   1.498 101.801  1.00  0.00    -0.001 C 
HETATM   12  C12 UNL     1      49.420   0.930 102.488  1.00  0.00    -0.036 C 
HETATM   13  C13 UNL     1      48.317   1.988 102.301  1.00  0.00     0.010 C 
HETATM   14  C14 UNL     1      48.067   2.303 100.817  1.00  0.00     0.007 C 
HETATM   15  C15 UNL     1      51.798   0.574 102.264  1.00  0.00     0.006 C 
HETATM   16  C16 UNL     1      51.415   0.239 103.711  1.00  0.00     0.006 C 
HETATM   17  C17 UNL     1      49.966   0.767 103.943  1.00  0.00    -0.002 C 
HETATM   18  C27 UNL     1      48.412   1.722  97.834  1.00  0.00     0.020 C 
HETATM   19  C28 UNL     1      48.964  -0.432 101.911  1.00  0.00     0.016 C 
ENDROOT
BRANCH  17  20
HETATM   20  C18 UNL     1      49.181  -0.118 104.955  1.00  0.00    -0.014 C 
HETATM   21  C24 UNL     1      47.696   0.257 105.010  1.00  0.00     0.010 C 
BRANCH  20  22
HETATM   22  C19 UNL     1      49.785  -0.011 106.384  1.00  0.00     0.009 C 
BRANCH  22  23
HETATM   23  C20 UNL     1      49.176   1.105 107.255  1.00  0.00     0.034 C 
BRANCH  23  24
HETATM   24  C21 UNL     1      50.162   2.045 107.929  1.00  0.00    -0.081 C 
HETATM   25  C22 UNL     1      50.631   3.158 107.325  1.00  0.00    -0.028 C 
HETATM   26  C23 UNL     1      50.280   3.681 105.967  1.00  0.00     0.036 C 
BRANCH  24  27
HETATM   27  C25 UNL     1      50.628   1.602 109.320  1.00  0.00     0.006 C 
HETATM   28  C26 UNL     1      50.743   2.812 110.252  1.00  0.00     0.014 C 
HETATM   29  C29 UNL     1      49.770   0.518 109.985  1.00  0.00     0.014 C 
ENDBRANCH  24  27
ENDBRANCH  23  24
ENDBRANCH  22  23
ENDBRANCH  20  22
ENDBRANCH  17  20
BRANCH   2  30
HETATM   30  O1  UNL     1      49.340   5.401  94.940  1.00  0.00    -0.395 OA
HETATM   31  H39 UNL     1      49.808   6.246  94.836  1.00  0.00     0.210 HD
ENDBRANCH   2  30
TORSDOF 6
ENDMDL
