MODEL 1
REMARK VINA RESULT:      -8.0      0.000      0.000
REMARK  10 active torsions:
REMARK  status: ('A' for Active; 'I' for Inactive)
REMARK    1  A    between atoms: C1_1  and  O1_7 
REMARK    2  A    between atoms: C2_2  and  C7_9 
REMARK    3  A    between atoms: C3_3  and  O2_8 
REMARK    4  A    between atoms: C7_9  and  C8_10 
REMARK    5  A    between atoms: C9_11  and  C10_12 
REMARK    6  A    between atoms: C10_12  and  C11_13 
REMARK    7  A    between atoms: C11_13  and  C12_14 
REMARK    8  A    between atoms: C19_21  and  C20_24 
REMARK    9  A    between atoms: C23_27  and  O6_32 
REMARK   10  A    between atoms: C24_28  and  O5_30 
ROOT
HETATM    1  C1  UNL     1      51.125   1.088 101.464  1.00  0.00     0.077 A 
HETATM    2  C2  UNL     1      51.153   2.380 100.912  1.00  0.00     0.013 A 
HETATM    3  C3  UNL     1      50.985   3.473 101.780  1.00  0.00     0.092 A 
HETATM    4  C4  UNL     1      50.786   3.270 103.154  1.00  0.00     0.082 A 
HETATM    5  C5  UNL     1      50.757   1.978 103.673  1.00  0.00     0.095 A 
HETATM    6  C6  UNL     1      50.928   0.882 102.831  1.00  0.00     0.075 A 
HETATM    7  C17 UNL     1      50.601   4.393 104.083  1.00  0.00     0.190 A 
HETATM    8  C18 UNL     1      50.379   4.064 105.498  1.00  0.00     0.094 A 
HETATM    9  C19 UNL     1      50.364   2.777 105.869  1.00  0.00     0.090 A 
HETATM   10  O3  UNL     1      50.565   1.712 105.006  1.00  0.00    -0.309 OA
HETATM   11  O4  UNL     1      50.628   5.555 103.694  1.00  0.00    -0.287 OA
ENDROOT
BRANCH   2  12
HETATM   12  C7  UNL     1      51.396   2.590  99.434  1.00  0.00     0.072 C 
BRANCH  12  13
HETATM   13  C8  UNL     1      50.127   2.495  98.625  1.00  0.00    -0.020 C 
HETATM   14  C9  UNL     1      49.403   3.490  98.069  1.00  0.00    -0.087 C 
HETATM   15  C13 UNL     1      49.719   4.955  98.200  1.00  0.00     0.043 C 
BRANCH  14  16
HETATM   16  C10 UNL     1      48.149   3.166  97.273  1.00  0.00     0.037 C 
BRANCH  16  17
HETATM   17  C11 UNL     1      47.031   2.497  98.087  1.00  0.00     0.031 C 
BRANCH  17  18
HETATM   18  C12 UNL     1      46.991   2.959  99.520  1.00  0.00    -0.024 C 
HETATM   19  C14 UNL     1      47.200   2.230 100.633  1.00  0.00    -0.091 C 
HETATM   20  C15 UNL     1      47.491   0.756 100.666  1.00  0.00     0.042 C 
HETATM   21  C16 UNL     1      47.132   2.878 101.992  1.00  0.00     0.042 C 
ENDBRANCH  17  18
ENDBRANCH  16  17
ENDBRANCH  14  16
ENDBRANCH  12  13
ENDBRANCH   2  12
BRANCH   1  22
HETATM   22  O1  UNL     1      51.289   0.009 100.640  1.00  0.00    -0.360 OA
HETATM   23  H2  UNL     1      52.061  -0.506 100.926  1.00  0.00     0.217 HD
ENDBRANCH   1  22
BRANCH   3  24
HETATM   24  O2  UNL     1      51.023   4.734 101.240  1.00  0.00    -0.359 OA
HETATM   25  H3  UNL     1      51.929   4.905 100.896  1.00  0.00     0.217 HD
ENDBRANCH   3  24
BRANCH   9  26
HETATM   26  C20 UNL     1      50.151   2.383 107.274  1.00  0.00     0.001 A 
HETATM   27  C21 UNL     1      50.483   3.273 108.304  1.00  0.00     0.017 A 
HETATM   28  C22 UNL     1      50.293   2.917 109.639  1.00  0.00     0.040 A 
HETATM   29  C23 UNL     1      49.777   1.660 109.950  1.00  0.00     0.099 A 
HETATM   30  C24 UNL     1      49.446   0.745 108.940  1.00  0.00     0.102 A 
HETATM   31  C25 UNL     1      49.638   1.115 107.604  1.00  0.00     0.054 A 
BRANCH  29  32
HETATM   32  O6  UNL     1      49.589   1.307 111.259  1.00  0.00    -0.358 OA
HETATM   33  H28 UNL     1      50.267   0.664 111.519  1.00  0.00     0.217 HD
ENDBRANCH  29  32
BRANCH  30  34
HETATM   34  O5  UNL     1      48.953  -0.463 109.359  1.00  0.00    -0.353 OA
HETATM   35  C26 UNL     1      48.269  -1.262 108.405  1.00  0.00     0.210 C 
ENDBRANCH  30  34
ENDBRANCH   9  26
TORSDOF 10
ENDMDL
