MODEL 1
REMARK VINA RESULT:      -7.0      0.000      0.000
REMARK  6 active torsions:
REMARK  status: ('A' for Active; 'I' for Inactive)
REMARK    1  A    between atoms: C7_7  and  O2_19 
REMARK    2  A    between atoms: C14_14  and  O3_21 
REMARK    3  A    between atoms: C17_17  and  C20_23 
REMARK    4  A    between atoms: C17_17  and  O6_27 
REMARK    5  A    between atoms: C20_23  and  C21_24 
REMARK    6  A    between atoms: C21_24  and  O5_26 
ROOT
HETATM    1  C1  UNL     1      44.433  -3.442 101.812  1.00  0.00     0.052 A 
HETATM    2  C2  UNL     1      44.683  -4.311 102.975  1.00  0.00     0.172 A 
HETATM    3  C3  UNL     1      45.527  -3.766 104.057  1.00  0.00     0.061 A 
HETATM    4  C4  UNL     1      46.010  -2.510 104.029  1.00  0.00    -0.032 A 
HETATM    5  C5  UNL     1      45.721  -1.517 102.885  1.00  0.00     0.039 A 
HETATM    6  C6  UNL     1      44.909  -2.189 101.775  1.00  0.00    -0.006 A 
HETATM    7  C7  UNL     1      46.948  -2.053 105.114  1.00  0.00     0.149 C 
HETATM    8  C8  UNL     1      48.262  -1.536 104.535  1.00  0.00     0.044 C 
HETATM    9  C9  UNL     1      48.050  -0.462 103.446  1.00  0.00     0.037 C 
HETATM   10  C10 UNL     1      47.108  -1.001 102.320  1.00  0.00     0.147 C 
HETATM   11  C11 UNL     1      49.404  -0.067 102.826  1.00  0.00     0.005 C 
HETATM   12  C12 UNL     1      49.307   1.043 101.751  1.00  0.00     0.001 C 
HETATM   13  C13 UNL     1      48.405   0.490 100.625  1.00  0.00     0.048 C 
HETATM   14  C14 UNL     1      47.026  -0.019 101.107  1.00  0.00     0.160 C 
HETATM   15  C15 UNL     1      50.514   0.415 103.755  1.00  0.00     0.013 C 
HETATM   16  C16 UNL     1      51.501   1.168 102.829  1.00  0.00     0.025 C 
HETATM   17  C17 UNL     1      50.830   1.212 101.407  1.00  0.00     0.131 C 
HETATM   18  O1  UNL     1      44.220  -5.443 103.037  1.00  0.00    -0.289 OA
HETATM   19  C18 UNL     1      44.809  -0.391 103.425  1.00  0.00     0.028 C 
HETATM   20  C19 UNL     1      48.746   2.383 102.296  1.00  0.00     0.019 C 
HETATM   21  C22 UNL     1      52.894   0.542 102.851  1.00  0.00     0.013 C 
HETATM   22  F1  UNL     1      47.752  -2.125 101.817  1.00  0.00    -0.238 F 
ENDROOT
BRANCH  17  23
HETATM   23  C20 UNL     1      51.185   2.531 100.662  1.00  0.00     0.185 C 
HETATM   24  O4  UNL     1      51.523   3.562 101.251  1.00  0.00    -0.292 OA
BRANCH  23  25
HETATM   25  C21 UNL     1      51.028   2.546  99.144  1.00  0.00     0.245 C 
BRANCH  25  26
HETATM   26  O5  UNL     1      52.151   2.024  98.454  1.00  0.00    -0.393 OA
HETATM   27  H25 UNL     1      52.904   2.066  99.077  1.00  0.00     0.209 HD
ENDBRANCH  25  26
ENDBRANCH  23  25
ENDBRANCH  17  23
BRANCH  17  28
HETATM   28  O6  UNL     1      51.302   0.086 100.665  1.00  0.00    -0.381 OA
HETATM   29  H26 UNL     1      50.587  -0.582 100.639  1.00  0.00     0.211 HD
ENDBRANCH  17  28
BRANCH  14  30
HETATM   30  O3  UNL     1      46.152   1.093 101.278  1.00  0.00    -0.392 OA
HETATM   31  H19 UNL     1      45.649   0.998 102.100  1.00  0.00     0.210 HD
ENDBRANCH  14  30
BRANCH   7  32
HETATM   32  O2  UNL     1      46.318  -1.017 105.856  1.00  0.00    -0.391 OA
HETATM   33  H15 UNL     1      45.362  -1.197 105.847  1.00  0.00     0.210 HD
ENDBRANCH   7  32
TORSDOF 6
ENDMDL
