MODEL 1
REMARK VINA RESULT:      -8.3      0.000      0.000
REMARK  8 active torsions:
REMARK  status: ('A' for Active; 'I' for Inactive)
REMARK    1  A    between atoms: C6_6  and  O4_23 
REMARK    2  A    between atoms: C10_10  and  C12_12 
REMARK    3  A    between atoms: C12_12  and  C13_13 
REMARK    4  A    between atoms: C13_13  and  C14_14 
REMARK    5  A    between atoms: C16_16  and  O2_20 
REMARK    6  A    between atoms: O4_23  and  C20_24 
REMARK    7  A    between atoms: C20_24  and  C21_25 
REMARK    8  A    between atoms: C21_25  and  C22_27 
ROOT
HETATM    1  C1  UNL     1      50.384   1.399 108.165  1.00  0.00     0.041 C 
HETATM    2  C2  UNL     1      50.491   2.924 108.245  1.00  0.00     0.007 C 
HETATM    3  C3  UNL     1      50.785   3.491 106.886  1.00  0.00    -0.015 C 
HETATM    4  C4  UNL     1      50.448   2.861 105.748  1.00  0.00    -0.055 C 
HETATM    5  C5  UNL     1      49.610   1.584 105.711  1.00  0.00     0.052 C 
HETATM    6  C6  UNL     1      49.355   0.950 107.120  1.00  0.00     0.141 C 
HETATM    7  C7  UNL     1      50.874   3.379 104.468  1.00  0.00     0.004 C 
HETATM    8  C8  UNL     1      51.253   2.524 103.511  1.00  0.00    -0.022 C 
HETATM    9  C9  UNL     1      51.276   1.044 103.793  1.00  0.00     0.009 C 
HETATM   10  C10 UNL     1      49.995   0.580 104.555  1.00  0.00     0.004 C 
HETATM   11  C11 UNL     1      51.586   0.245 102.524  1.00  0.00     0.014 C 
HETATM   12  C19 UNL     1      51.579   3.316 109.246  1.00  0.00     0.014 C 
ENDROOT
BRANCH  10  13
HETATM   13  C12 UNL     1      48.789   0.367 103.591  1.00  0.00     0.009 C 
BRANCH  13  14
HETATM   14  C13 UNL     1      47.708   1.456 103.690  1.00  0.00     0.033 C 
BRANCH  14  15
HETATM   15  C14 UNL     1      47.338   2.109 102.348  1.00  0.00     0.134 C 
HETATM   16  C15 UNL     1      45.902   1.840 101.923  1.00  0.00     0.065 C 
HETATM   17  C16 UNL     1      45.654   2.536 100.598  1.00  0.00     0.130 C 
HETATM   18  C17 UNL     1      46.661   2.096  99.556  1.00  0.00     0.142 C 
HETATM   19  C18 UNL     1      48.079   1.953 100.046  1.00  0.00     0.261 C 
HETATM   20  O1  UNL     1      48.271   1.657 101.351  1.00  0.00    -0.316 OA
HETATM   21  O3  UNL     1      49.021   1.966  99.257  1.00  0.00    -0.265 OA
BRANCH  17  22
HETATM   22  O2  UNL     1      45.714   3.948 100.790  1.00  0.00    -0.395 OA
HETATM   23  H30 UNL     1      46.573   4.164 101.197  1.00  0.00     0.210 HD
ENDBRANCH  17  22
ENDBRANCH  14  15
ENDBRANCH  13  14
ENDBRANCH  10  13
BRANCH   6  24
HETATM   24  O4  UNL     1      49.371  -0.495 107.076  1.00  0.00    -0.315 OA
BRANCH  24  25
HETATM   25  C20 UNL     1      48.412  -1.139 107.806  1.00  0.00     0.267 C 
HETATM   26  O5  UNL     1      48.383  -1.172 109.029  1.00  0.00    -0.264 OA
BRANCH  25  27
HETATM   27  C21 UNL     1      47.422  -1.874 106.889  1.00  0.00     0.040 C 
HETATM   28  C24 UNL     1      46.434  -0.867 106.284  1.00  0.00     0.025 C 
HETATM   29  C25 UNL     1      46.629  -2.883 107.740  1.00  0.00     0.025 C 
BRANCH  27  30
HETATM   30  C22 UNL     1      48.250  -2.598 105.797  1.00  0.00     0.014 C 
HETATM   31  C23 UNL     1      47.486  -2.984 104.539  1.00  0.00     0.006 C 
ENDBRANCH  27  30
ENDBRANCH  25  27
ENDBRANCH  24  25
ENDBRANCH   6  24
TORSDOF 8
ENDMDL
