MODEL 1
REMARK VINA RESULT:      -8.8      0.000      0.000
REMARK  10 active torsions:
REMARK  status: ('A' for Active; 'I' for Inactive)
REMARK    1  A    between atoms: C1_1  and  O2_15 
REMARK    2  A    between atoms: C2_2  and  O3_16 
REMARK    3  A    between atoms: C11_12  and  O6_19 
REMARK    4  A    between atoms: C12_13  and  C14_20 
REMARK    5  A    between atoms: C13_14  and  O5_18 
REMARK    6  A    between atoms: C15_21  and  O9_28 
REMARK    7  A    between atoms: C16_22  and  O8_27 
REMARK    8  A    between atoms: C17_23  and  O10_29 
REMARK    9  A    between atoms: C18_24  and  C19_26 
REMARK   10  A    between atoms: C19_26  and  O11_30 
ROOT
HETATM    1  C1  UNL     1      50.268   1.138 109.607  1.00  0.00     0.099 A 
HETATM    2  C2  UNL     1      50.677   2.413 109.995  1.00  0.00     0.101 A 
HETATM    3  C3  UNL     1      50.778   3.434 109.058  1.00  0.00     0.077 A 
HETATM    4  C4  UNL     1      50.463   3.165 107.721  1.00  0.00     0.093 A 
HETATM    5  C5  UNL     1      50.054   1.889 107.338  1.00  0.00     0.052 A 
HETATM    6  C6  UNL     1      49.952   0.862 108.284  1.00  0.00     0.057 A 
HETATM    7  O1  UNL     1      50.581   4.217 106.849  1.00  0.00    -0.309 OA
HETATM    8  C7  UNL     1      50.305   3.998 105.522  1.00  0.00     0.095 A 
HETATM    9  C8  UNL     1      49.892   2.778 104.986  1.00  0.00     0.083 A 
HETATM   10  C9  UNL     1      49.727   1.640 105.925  1.00  0.00     0.200 A 
HETATM   11  C10 UNL     1      50.474   5.110 104.694  1.00  0.00     0.075 A 
HETATM   12  C11 UNL     1      50.229   4.997 103.327  1.00  0.00     0.080 A 
HETATM   13  C12 UNL     1      49.800   3.794 102.748  1.00  0.00     0.041 A 
HETATM   14  C13 UNL     1      49.643   2.682 103.603  1.00  0.00     0.094 A 
HETATM   15  O4  UNL     1      49.334   0.532 105.590  1.00  0.00    -0.286 OA
ENDROOT
BRANCH  13  16
HETATM   16  C14 UNL     1      49.574   3.727 101.237  1.00  0.00     0.192 C 
HETATM   17  C15 UNL     1      50.811   3.136 100.512  1.00  0.00     0.183 C 
HETATM   18  C16 UNL     1      50.493   2.882  99.033  1.00  0.00     0.181 C 
HETATM   19  C17 UNL     1      49.197   2.096  98.860  1.00  0.00     0.180 C 
HETATM   20  C18 UNL     1      48.069   2.836  99.592  1.00  0.00     0.177 C 
HETATM   21  O7  UNL     1      48.390   2.939 100.986  1.00  0.00    -0.368 OA
BRANCH  17  22
HETATM   22  O9  UNL     1      51.965   3.994 100.520  1.00  0.00    -0.390 OA
HETATM   23  H16 UNL     1      52.694   3.532 100.061  1.00  0.00     0.210 HD
ENDBRANCH  17  22
BRANCH  18  24
HETATM   24  O8  UNL     1      51.563   2.156  98.409  1.00  0.00    -0.390 OA
HETATM   25  H15 UNL     1      51.173   1.786  97.591  1.00  0.00     0.210 HD
ENDBRANCH  18  24
BRANCH  19  26
HETATM   26  O10 UNL     1      48.909   1.952  97.464  1.00  0.00    -0.390 OA
HETATM   27  H17 UNL     1      47.945   2.117  97.390  1.00  0.00     0.210 HD
ENDBRANCH  19  26
BRANCH  20  28
HETATM   28  C19 UNL     1      46.730   2.102  99.433  1.00  0.00     0.198 C 
BRANCH  28  29
HETATM   29  O11 UNL     1      46.912   0.705  99.230  1.00  0.00    -0.398 OA
HETATM   30  H18 UNL     1      47.791   0.476  99.602  1.00  0.00     0.209 HD
ENDBRANCH  28  29
ENDBRANCH  20  28
ENDBRANCH  13  16
BRANCH  12  31
HETATM   31  O6  UNL     1      50.460   6.072 102.511  1.00  0.00    -0.360 OA
HETATM   32  H7  UNL     1      50.145   5.863 101.612  1.00  0.00     0.217 HD
ENDBRANCH  12  31
BRANCH  14  33
HETATM   33  O5  UNL     1      49.258   1.478 103.078  1.00  0.00    -0.359 OA
HETATM   34  H6  UNL     1      49.326   0.804 103.782  1.00  0.00     0.217 HD
ENDBRANCH  14  33
BRANCH   1  35
HETATM   35  O2  UNL     1      50.172   0.143 110.536  1.00  0.00    -0.358 OA
HETATM   36  H4  UNL     1      51.089  -0.012 110.837  1.00  0.00     0.217 HD
ENDBRANCH   1  35
BRANCH   2  37
HETATM   37  O3  UNL     1      50.971   2.610 111.316  1.00  0.00    -0.358 OA
HETATM   38  H5  UNL     1      51.431   3.463 111.407  1.00  0.00     0.217 HD
ENDBRANCH   2  37
TORSDOF 10
ENDMDL
