MODEL 1
REMARK VINA RESULT:      -7.8      0.000      0.000
REMARK  1 active torsions:
REMARK  status: ('A' for Active; 'I' for Inactive)
REMARK    1  A    between atoms: C17_17  and  O2_23 
ROOT
HETATM    1  C1  UNL     1      51.626   2.057 102.063  1.00  0.00     0.084 C 
HETATM    2  C2  UNL     1      51.358   1.449 100.712  1.00  0.00     0.149 C 
HETATM    3  C3  UNL     1      50.114   0.667 100.537  1.00  0.00     0.053 C 
HETATM    4  C4  UNL     1      49.292   0.398 101.566  1.00  0.00    -0.068 C 
HETATM    5  C5  UNL     1      49.599   0.778 103.021  1.00  0.00    -0.016 C 
HETATM    6  C6  UNL     1      51.105   1.149 103.167  1.00  0.00     0.022 C 
HETATM    7  C7  UNL     1      47.975  -0.293 101.307  1.00  0.00     0.035 C 
HETATM    8  C8  UNL     1      47.764  -1.488 102.227  1.00  0.00     0.010 C 
HETATM    9  C9  UNL     1      47.894  -1.085 103.702  1.00  0.00    -0.004 C 
HETATM   10  C10 UNL     1      49.296  -0.451 103.962  1.00  0.00     0.002 C 
HETATM   11  C11 UNL     1      47.710  -2.293 104.628  1.00  0.00     0.002 C 
HETATM   12  C12 UNL     1      47.814  -1.929 106.125  1.00  0.00     0.003 C 
HETATM   13  C13 UNL     1      49.222  -1.362 106.381  1.00  0.00     0.014 C 
HETATM   14  C14 UNL     1      49.530  -0.160 105.470  1.00  0.00     0.007 C 
HETATM   15  C15 UNL     1      46.408  -3.086 104.542  1.00  0.00     0.010 C 
HETATM   16  C16 UNL     1      46.307  -3.825 105.892  1.00  0.00     0.052 C 
HETATM   17  C17 UNL     1      47.469  -3.304 106.776  1.00  0.00     0.128 C 
HETATM   18  O1  UNL     1      52.095   1.639  99.747  1.00  0.00    -0.293 OA
HETATM   19  C18 UNL     1      48.587  -4.273 106.769  1.00  0.00    -0.078 C 
HETATM   20  C19 UNL     1      49.487  -5.069 106.776  1.00  0.00     0.015 C 
HETATM   21  C20 UNL     1      48.742   2.011 103.387  1.00  0.00     0.020 C 
HETATM   22  C21 UNL     1      46.768  -0.869 106.582  1.00  0.00     0.020 C 
ENDROOT
BRANCH  17  23
HETATM   23  O2  UNL     1      47.024  -3.162 108.116  1.00  0.00    -0.377 OA
HETATM   24  H28 UNL     1      46.072  -3.360 108.119  1.00  0.00     0.211 HD
ENDBRANCH  17  23
TORSDOF 1
ENDMDL
