MODEL 1
REMARK VINA RESULT:      -8.6      0.000      0.000
REMARK  8 active torsions:
REMARK  status: ('A' for Active; 'I' for Inactive)
REMARK    1  A    between atoms: C1_1  and  O2_10 
REMARK    2  A    between atoms: C4_4  and  C7_7 
REMARK    3  A    between atoms: C6_6  and  O3_15 
REMARK    4  A    between atoms: O2_10  and  C9_11 
REMARK    5  A    between atoms: C9_11  and  C10_12 
REMARK    6  A    between atoms: C10_12  and  C11_13 
REMARK    7  A    between atoms: C11_13  and  N1_14 
REMARK    8  A    between atoms: C15_19  and  C18_22 
ROOT
HETATM    1  N1  UNL     1      48.406  -1.617 103.830  1.00  0.00     0.088 N 
HETATM    2  C13 UNL     1      48.978  -0.424 103.217  1.00  0.00     0.273 C 
HETATM    3  C14 UNL     1      49.898   0.281 104.221  1.00  0.00     0.041 C 
HETATM    4  C15 UNL     1      49.374   0.203 105.669  1.00  0.00     0.044 C 
HETATM    5  C16 UNL     1      47.859  -0.020 105.684  1.00  0.00     0.041 C 
HETATM    6  C17 UNL     1      47.485  -1.304 104.930  1.00  0.00     0.273 C 
ENDROOT
BRANCH   1   7
HETATM    7  C11 UNL     1      47.854  -2.588 102.878  1.00  0.00     0.274 C 
BRANCH   7   8
HETATM    8  C10 UNL     1      46.759  -3.523 103.420  1.00  0.00     0.057 C 
BRANCH   8   9
HETATM    9  C9  UNL     1      46.737  -4.853 102.667  1.00  0.00     0.177 C 
BRANCH   9  10
HETATM   10  O2  UNL     1      47.054  -5.902 103.579  1.00  0.00    -0.348 OA
BRANCH  10  11
HETATM   11  C1  UNL     1      48.382  -6.198 103.759  1.00  0.00     0.102 A 
HETATM   12  C2  UNL     1      49.226  -6.644 102.738  1.00  0.00     0.040 A 
HETATM   13  C3  UNL     1      50.566  -6.942 103.005  1.00  0.00     0.018 A 
HETATM   14  C4  UNL     1      51.069  -6.803 104.301  1.00  0.00     0.012 A 
HETATM   15  C5  UNL     1      50.220  -6.368 105.330  1.00  0.00     0.054 A 
HETATM   16  C6  UNL     1      48.879  -6.068 105.070  1.00  0.00     0.102 A 
BRANCH  14  17
HETATM   17  C7  UNL     1      52.493  -7.109 104.637  1.00  0.00     0.155 C 
HETATM   18  O1  UNL     1      52.752  -7.895 105.547  1.00  0.00    -0.293 OA
HETATM   19  C8  UNL     1      53.590  -6.443 103.849  1.00  0.00     0.096 C 
ENDBRANCH  14  17
BRANCH  16  20
HETATM   20  O3  UNL     1      47.982  -5.632 106.013  1.00  0.00    -0.353 OA
HETATM   21  C12 UNL     1      48.345  -4.501 106.794  1.00  0.00     0.210 C 
ENDBRANCH  16  20
ENDBRANCH  10  11
ENDBRANCH   9  10
ENDBRANCH   8   9
ENDBRANCH   7   8
ENDBRANCH   1   7
BRANCH   4  22
HETATM   22  C18 UNL     1      49.795   1.390 106.481  1.00  0.00     0.079 A 
HETATM   23  N2  UNL     1      50.152   2.539 105.884  1.00  0.00    -0.131 NA
HETATM   24  O4  UNL     1      50.480   3.413 106.907  1.00  0.00    -0.212 OA
HETATM   25  C19 UNL     1      50.324   2.791 108.105  1.00  0.00     0.116 A 
HETATM   26  C20 UNL     1      49.888   1.493 107.895  1.00  0.00     0.027 A 
HETATM   27  C21 UNL     1      50.561   3.352 109.355  1.00  0.00     0.082 A 
HETATM   28  C24 UNL     1      49.663   0.665 109.010  1.00  0.00     0.019 A 
HETATM   29  C23 UNL     1      49.893   1.197 110.287  1.00  0.00     0.043 A 
HETATM   30  C22 UNL     1      50.332   2.511 110.442  1.00  0.00     0.119 A 
HETATM   31  F1  UNL     1      50.541   2.981 111.680  1.00  0.00    -0.206 F 
ENDBRANCH   4  22
TORSDOF 8
ENDMDL
