MODEL 1
REMARK VINA RESULT:      -8.2      0.000      0.000
REMARK  3 active torsions:
REMARK  status: ('A' for Active; 'I' for Inactive)
REMARK    1  A    between atoms: C3_3  and  N2_14 
REMARK       I    between atoms: N2_14  and  C11_15 
REMARK       I    between atoms: C11_15  and  N3_16 
REMARK    2  A    between atoms: N3_16  and  C12_18 
REMARK    3  A    between atoms: C15_21  and  N4_24 
ROOT
HETATM    1  N2  UNL     1      49.375  -0.470 107.057  1.00  0.00    -0.308 N 
HETATM    2  C11 UNL     1      48.165  -0.841 106.481  1.00  0.00     0.325 C 
HETATM    3  N3  UNL     1      48.268  -2.122 105.956  1.00  0.00    -0.309 N 
HETATM    4  O1  UNL     1      47.161  -0.143 106.448  1.00  0.00    -0.247 OA
HETATM    5  H7  UNL     1      49.961  -1.247 107.307  1.00  0.00     0.170 HD
HETATM    6  H8  UNL     1      49.205  -2.451 105.777  1.00  0.00     0.170 HD
ENDROOT
BRANCH   1   7
HETATM    7  C3  UNL     1      49.734   0.810 107.560  1.00  0.00     0.051 A 
HETATM    8  C2  UNL     1      49.948   1.894 106.660  1.00  0.00     0.026 A 
HETATM    9  C1  UNL     1      50.274   3.152 107.226  1.00  0.00     0.108 A 
HETATM   10  C9  UNL     1      49.866   1.802 105.245  1.00  0.00     0.058 A 
HETATM   11  N1  UNL     1      50.379   3.338 108.554  1.00  0.00    -0.250 NA
HETATM   12  C6  UNL     1      50.494   4.234 106.370  1.00  0.00     0.148 A 
HETATM   13  C5  UNL     1      50.167   2.301 109.389  1.00  0.00     0.033 A 
HETATM   14  C4  UNL     1      49.842   1.035 108.932  1.00  0.00     0.057 A 
HETATM   15  C10 UNL     1      50.294   2.562 110.859  1.00  0.00     0.070 C 
HETATM   16  C7  UNL     1      50.408   4.132 104.986  1.00  0.00     0.087 A 
HETATM   17  F1  UNL     1      50.801   5.439 106.883  1.00  0.00    -0.203 F 
HETATM   18  C8  UNL     1      50.094   2.910 104.434  1.00  0.00     0.120 A 
HETATM   19  F2  UNL     1      50.007   2.781 103.106  1.00  0.00    -0.206 F 
ENDBRANCH   1   7
BRANCH   3  20
HETATM   20  C12 UNL     1      47.230  -2.906 105.414  1.00  0.00     0.036 A 
HETATM   21  C13 UNL     1      46.782  -2.589 104.132  1.00  0.00     0.032 A 
HETATM   22  C14 UNL     1      45.758  -3.332 103.526  1.00  0.00     0.031 A 
HETATM   23  C15 UNL     1      45.135  -4.415 104.168  1.00  0.00     0.029 A 
HETATM   24  C16 UNL     1      45.626  -4.728 105.445  1.00  0.00     0.031 A 
HETATM   25  C17 UNL     1      46.649  -3.989 106.063  1.00  0.00     0.032 A 
BRANCH  23  26
HETATM   26  N4  UNL     1      44.124  -5.154 103.542  1.00  0.00    -0.390 N 
HETATM   27  C18 UNL     1      44.536  -6.272 102.688  1.00  0.00     0.149 C 
HETATM   28  C19 UNL     1      42.898  -4.472 103.128  1.00  0.00     0.149 C 
ENDBRANCH  23  26
ENDBRANCH   3  20
TORSDOF 3
ENDMDL
