MODEL 1
REMARK VINA RESULT:      -4.7      0.000      0.000
REMARK  11 active torsions:
REMARK  status: ('A' for Active; 'I' for Inactive)
REMARK    1  A    between atoms: C2_2  and  O1_3 
REMARK    2  A    between atoms: O1_3  and  C3_4 
REMARK    3  A    between atoms: C3_4  and  C4_5 
REMARK    4  A    between atoms: C4_5  and  C5_7 
REMARK    5  A    between atoms: C4_5  and  S1_13 
REMARK    6  A    between atoms: C5_7  and  C6_8 
REMARK    7  A    between atoms: C6_8  and  O4_10 
REMARK    8  A    between atoms: O4_10  and  C7_11 
REMARK    9  A    between atoms: S1_13  and  P1_14 
REMARK   10  A    between atoms: P1_14  and  O5_15 
REMARK   11  A    between atoms: P1_14  and  O6_16 
ROOT
HETATM    1  C4  UNL     1      48.839   0.403 106.204  1.00  0.00     0.165 C 
ENDROOT
BRANCH   1   2
HETATM    2  C3  UNL     1      47.576  -0.445 106.183  1.00  0.00     0.273 C 
HETATM    3  O2  UNL     1      46.437  -0.025 106.033  1.00  0.00    -0.264 OA
BRANCH   2   4
HETATM    4  O1  UNL     1      47.909  -1.760 106.343  1.00  0.00    -0.321 OA
BRANCH   4   5
HETATM    5  C2  UNL     1      46.860  -2.617 106.818  1.00  0.00     0.174 C 
HETATM    6  C1  UNL     1      46.847  -2.641 108.334  1.00  0.00     0.034 C 
ENDBRANCH   4   5
ENDBRANCH   2   4
ENDBRANCH   1   2
BRANCH   1   7
HETATM    7  C5  UNL     1      49.798  -0.047 107.301  1.00  0.00     0.137 C 
BRANCH   7   8
HETATM    8  C6  UNL     1      49.431   0.463 108.671  1.00  0.00     0.260 C 
HETATM    9  O3  UNL     1      49.093  -0.252 109.602  1.00  0.00    -0.265 OA
BRANCH   8  10
HETATM   10  O4  UNL     1      49.544   1.819 108.717  1.00  0.00    -0.322 OA
BRANCH  10  11
HETATM   11  C7  UNL     1      50.698   2.324 109.406  1.00  0.00     0.174 C 
HETATM   12  C8  UNL     1      50.308   2.837 110.780  1.00  0.00     0.034 C 
ENDBRANCH  10  11
ENDBRANCH   8  10
ENDBRANCH   7   8
ENDBRANCH   1   7
BRANCH   1  13
HETATM   13  S1  UNL     1      49.641   0.456 104.563  1.00  0.00    -0.059 SA
BRANCH  13  14
HETATM   14  P1  UNL     1      50.212   2.476 104.333  1.00  0.00     0.248 P 
HETATM   15  S2  UNL     1      49.063   3.618 103.244  1.00  0.00    -0.026 SA
BRANCH  14  16
HETATM   16  O5  UNL     1      51.737   2.420 103.760  1.00  0.00    -0.332 OA
HETATM   17  C10 UNL     1      52.085   1.419 102.822  1.00  0.00     0.211 C 
ENDBRANCH  14  16
BRANCH  14  18
HETATM   18  O6  UNL     1      50.500   3.099 105.802  1.00  0.00    -0.332 OA
HETATM   19  C9  UNL     1      50.400   4.498 105.985  1.00  0.00     0.211 C 
ENDBRANCH  14  18
ENDBRANCH  13  14
ENDBRANCH   1  13
TORSDOF 11
ENDMDL
