MODEL 1
REMARK VINA RESULT:      -7.8      0.000      0.000
REMARK  7 active torsions:
REMARK  status: ('A' for Active; 'I' for Inactive)
REMARK    1  A    between atoms: C7_8  and  O3_13 
REMARK    2  A    between atoms: O3_13  and  C11_14 
REMARK    3  A    between atoms: C12_15  and  N1_20 
REMARK    4  A    between atoms: C13_16  and  O7_26 
REMARK    5  A    between atoms: C14_17  and  O8_27 
REMARK    6  A    between atoms: C15_18  and  C18_24 
REMARK       I    between atoms: N1_20  and  C16_21 
REMARK    7  A    between atoms: C18_24  and  O6_25 
ROOT
HETATM    1  C11 UNL     1      47.314  -0.920 104.423  1.00  0.00     0.292 C 
HETATM    2  C12 UNL     1      46.505  -2.201 104.066  1.00  0.00     0.171 C 
HETATM    3  C13 UNL     1      45.616  -1.974 102.820  1.00  0.00     0.177 C 
HETATM    4  C14 UNL     1      45.343  -0.488 102.585  1.00  0.00     0.180 C 
HETATM    5  C15 UNL     1      46.678   0.284 102.443  1.00  0.00     0.179 C 
HETATM    6  O4  UNL     1      47.753  -0.286 103.221  1.00  0.00    -0.349 OA
ENDROOT
BRANCH   1   7
HETATM    7  O3  UNL     1      48.444  -1.333 105.218  1.00  0.00    -0.318 OA
BRANCH   7   8
HETATM    8  C7  UNL     1      48.867  -0.405 106.129  1.00  0.00     0.074 A 
HETATM    9  C6  UNL     1      49.302   0.877 105.799  1.00  0.00     0.075 A 
HETATM   10  C1  UNL     1      49.717   1.738 106.821  1.00  0.00     0.092 A 
HETATM   11  C2  UNL     1      49.724   1.354 108.166  1.00  0.00     0.004 A 
HETATM   12  O1  UNL     1      50.136   3.028 106.423  1.00  0.00    -0.275 OA
HETATM   13  C3  UNL     1      50.164   2.325 109.178  1.00  0.00    -0.043 A 
HETATM   14  C9  UNL     1      49.316   0.053 108.473  1.00  0.00     0.017 A 
HETATM   15  C4  UNL     1      50.549   3.542 108.766  1.00  0.00     0.090 A 
HETATM   16  C10 UNL     1      50.182   1.947 110.628  1.00  0.00     0.049 C 
HETATM   17  C5  UNL     1      50.557   3.961 107.354  1.00  0.00     0.288 A 
HETATM   18  O2  UNL     1      50.938   5.083 107.039  1.00  0.00    -0.260 OA
HETATM   19  C8  UNL     1      48.894  -0.825 107.460  1.00  0.00     0.038 A 
ENDBRANCH   7   8
ENDBRANCH   1   7
BRANCH   2  20
HETATM   20  N1  UNL     1      47.384  -3.369 103.856  1.00  0.00    -0.349 N 
HETATM   21  C16 UNL     1      47.006  -4.635 104.227  1.00  0.00     0.214 C 
HETATM   22  O5  UNL     1      45.871  -4.899 104.621  1.00  0.00    -0.274 OA
HETATM   23  C17 UNL     1      48.101  -5.660 104.136  1.00  0.00     0.117 C 
HETATM   24  H13 UNL     1      48.373  -3.162 103.719  1.00  0.00     0.163 HD
ENDBRANCH   2  20
BRANCH   3  25
HETATM   25  O7  UNL     1      44.349  -2.636 102.994  1.00  0.00    -0.391 OA
HETATM   26  H20 UNL     1      43.882  -2.138 103.705  1.00  0.00     0.210 HD
ENDBRANCH   3  25
BRANCH   5  27
HETATM   27  C18 UNL     1      46.564   1.798 102.733  1.00  0.00     0.198 C 
BRANCH  27  28
HETATM   28  O6  UNL     1      45.298   2.343 102.335  1.00  0.00    -0.398 OA
HETATM   29  H19 UNL     1      44.761   2.406 103.155  1.00  0.00     0.209 HD
ENDBRANCH  27  28
ENDBRANCH   5  27
BRANCH   4  30
HETATM   30  O8  UNL     1      44.543  -0.003 103.683  1.00  0.00    -0.390 OA
HETATM   31  H21 UNL     1      44.217   0.875 103.376  1.00  0.00     0.210 HD
ENDBRANCH   4  30
TORSDOF 7
ENDMDL
