MODEL 1
REMARK VINA RESULT:      -9.4      0.000      0.000
REMARK  4 active torsions:
REMARK  status: ('A' for Active; 'I' for Inactive)
REMARK       I    between atoms: N1_1  and  C19_23 
REMARK    1  A    between atoms: C5_6  and  C7_8 
REMARK    2  A    between atoms: C7_8  and  O1_9 
REMARK    3  A    between atoms: O1_9  and  C8_11 
REMARK    4  A    between atoms: C19_23  and  C20_25 
ROOT
HETATM    1  N1  UNL     1      49.584   1.182 103.125  1.00  0.00    -0.322 N 
HETATM    2  C1  UNL     1      50.830   1.671 103.740  1.00  0.00     0.145 C 
HETATM    3  C2  UNL     1      50.678   2.606 104.973  1.00  0.00    -0.001 C 
HETATM    4  C3  UNL     1      50.128   1.843 106.171  1.00  0.00    -0.008 A 
HETATM    5  C4  UNL     1      49.393   0.658 106.120  1.00  0.00     0.058 A 
HETATM    6  C5  UNL     1      48.828  -0.160 105.081  1.00  0.00     0.082 C 
HETATM    7  C6  UNL     1      48.855   0.186 103.778  1.00  0.00     0.114 C 
HETATM    8  C11 UNL     1      50.204   2.229 107.566  1.00  0.00    -0.000 A 
HETATM    9  C12 UNL     1      49.614   1.216 108.312  1.00  0.00     0.043 A 
HETATM   10  N2  UNL     1      49.153   0.283 107.425  1.00  0.00    -0.354 N 
HETATM   11  C13 UNL     1      50.703   3.346 108.278  1.00  0.00     0.014 A 
HETATM   12  C14 UNL     1      50.623   3.385 109.677  1.00  0.00     0.001 A 
HETATM   13  C15 UNL     1      50.045   2.338 110.383  1.00  0.00     0.002 A 
HETATM   14  C16 UNL     1      49.522   1.233 109.711  1.00  0.00     0.030 A 
HETATM   15  C17 UNL     1      52.109   3.138 105.246  1.00  0.00     0.021 C 
HETATM   16  C18 UNL     1      49.766   3.801 104.640  1.00  0.00     0.021 C 
HETATM   17  C19 UNL     1      49.200   1.501 101.808  1.00  0.00     0.257 C 
HETATM   18  O3  UNL     1      48.191   1.072 101.249  1.00  0.00    -0.267 OA
HETATM   19  H11 UNL     1      48.612  -0.531 107.698  1.00  0.00     0.166 HD
ENDROOT
BRANCH  17  20
HETATM   20  C20 UNL     1      50.024   2.422 101.010  1.00  0.00     0.035 A 
HETATM   21  C21 UNL     1      51.025   1.909 100.181  1.00  0.00     0.062 A 
HETATM   22  C22 UNL     1      51.768   2.792  99.407  1.00  0.00     0.155 A 
HETATM   23  C23 UNL     1      51.510   4.159  99.445  1.00  0.00     0.154 A 
HETATM   24  F1  UNL     1      52.741   2.313  98.619  1.00  0.00    -0.203 F 
HETATM   25  C24 UNL     1      50.495   4.666 100.252  1.00  0.00     0.046 A 
HETATM   26  F2  UNL     1      52.234   5.002  98.695  1.00  0.00    -0.203 F 
HETATM   27  C25 UNL     1      49.738   3.793 101.035  1.00  0.00     0.020 A 
ENDBRANCH  17  20
BRANCH   6  28
HETATM   28  C7  UNL     1      48.008  -1.386 105.429  1.00  0.00     0.297 C 
HETATM   29  O2  UNL     1      46.848  -1.550 105.065  1.00  0.00    -0.259 OA
BRANCH  28  30
HETATM   30  O1  UNL     1      48.689  -2.233 106.245  1.00  0.00    -0.313 OA
BRANCH  30  31
HETATM   31  C8  UNL     1      47.929  -3.297 106.846  1.00  0.00     0.124 C 
HETATM   32  C9  UNL     1      47.602  -2.866 108.271  1.00  0.00     0.040 C 
HETATM   33  C10 UNL     1      48.758  -4.577 106.846  1.00  0.00     0.040 C 
ENDBRANCH  30  31
ENDBRANCH  28  30
ENDBRANCH   6  28
TORSDOF 4
ENDMDL
