MODEL 1
REMARK VINA RESULT:      -9.3      0.000      0.000
REMARK  3 active torsions:
REMARK  status: ('A' for Active; 'I' for Inactive)
REMARK    1  A    between atoms: C2_2  and  O2_19 
REMARK    2  A    between atoms: O2_19  and  S1_20 
REMARK    3  A    between atoms: S1_20  and  O3_21 
ROOT
HETATM    1  C1  UNL     1      50.496   4.842 106.735  1.00  0.00     0.039 A 
HETATM    2  C2  UNL     1      50.398   3.610 107.365  1.00  0.00     0.091 A 
HETATM    3  C3  UNL     1      50.077   2.470 106.636  1.00  0.00     0.045 A 
HETATM    4  C4  UNL     1      49.888   2.545 105.246  1.00  0.00    -0.049 A 
HETATM    5  C5  UNL     1      50.041   3.781 104.581  1.00  0.00    -0.047 A 
HETATM    6  C6  UNL     1      50.319   4.925 105.352  1.00  0.00     0.011 A 
HETATM    7  C7  UNL     1      49.570   1.264 104.510  1.00  0.00     0.039 C 
HETATM    8  C8  UNL     1      49.096   1.473 103.075  1.00  0.00     0.010 C 
HETATM    9  C9  UNL     1      49.984   2.503 102.378  1.00  0.00    -0.000 A 
HETATM   10  C10 UNL     1      49.800   3.887 103.076  1.00  0.00     0.024 A 
HETATM   11  C11 UNL     1      49.654   2.668 100.895  1.00  0.00     0.006 A 
HETATM   12  C12 UNL     1      50.626   3.651 100.211  1.00  0.00     0.021 C 
HETATM   13  C13 UNL     1      50.408   5.029 100.828  1.00  0.00     0.018 C 
HETATM   14  C14 UNL     1      50.612   4.997 102.356  1.00  0.00     0.011 C 
HETATM   15  C15 UNL     1      49.643   1.453  99.973  1.00  0.00     0.013 C 
HETATM   16  C16 UNL     1      49.540   2.088  98.577  1.00  0.00     0.079 C 
HETATM   17  C17 UNL     1      50.158   3.462  98.780  1.00  0.00     0.135 C 
HETATM   18  O1  UNL     1      50.282   4.293  97.891  1.00  0.00    -0.297 OA
HETATM   19  C18 UNL     1      52.116   3.260 100.240  1.00  0.00     0.024 C 
HETATM   20  C19 UNL     1      49.523   3.283 101.998  1.00  0.00     0.299 A 
HETATM   21  C20 UNL     1      51.035   2.945 101.981  1.00  0.00     0.299 A 
HETATM   22  N1  UNL     1      51.489   2.284 103.211  1.00  0.00     0.086 N 
HETATM   23  C21 UNL     1      51.186   3.128 104.380  1.00  0.00     0.299 A 
HETATM   24  C22 UNL     1      49.807   3.832 104.315  1.00  0.00     0.299 A 
HETATM   25  N2  UNL     1      48.898   3.212 103.335  1.00  0.00     0.086 N 
HETATM   26  H27 UNL     1      52.492   2.110 103.166  1.00  0.00     0.315 HD
HETATM   27  H32 UNL     1      48.873   2.217 103.573  1.00  0.00     0.315 HD
ENDROOT
BRANCH   2  28
HETATM   28  O2  UNL     1      50.565   3.490 108.717  1.00  0.00    -0.221 OA
BRANCH  28  29
HETATM   29  S1  UNL     1      51.508   2.284 109.291  1.00  0.00     0.245 S 
HETATM   30  O4  UNL     1      50.898   1.012 108.962  1.00  0.00    -0.579 OA
HETATM   31  O5  UNL     1      52.879   2.574 108.938  1.00  0.00    -0.579 OA
BRANCH  29  32
HETATM   32  O3  UNL     1      51.385   2.423 110.897  1.00  0.00    -0.273 OA
HETATM   33  H19 UNL     1      51.352   3.377 111.114  1.00  0.00     0.234 HD
ENDBRANCH  29  32
ENDBRANCH  28  29
ENDBRANCH   2  28
TORSDOF 3
ENDMDL
