MODEL 1
REMARK VINA RESULT:      -7.2      0.000      0.000
REMARK  6 active torsions:
REMARK  status: ('A' for Active; 'I' for Inactive)
REMARK    1  A    between atoms: C1_1  and  C2_2 
REMARK    2  A    between atoms: C1_1  and  C3_4 
REMARK    3  A    between atoms: C1_1  and  C4_5 
REMARK    4  A    between atoms: C1_1  and  O1_21 
REMARK    5  A    between atoms: C2_2  and  N1_3 
REMARK    6  A    between atoms: C3_4  and  N2_6 
ROOT
HETATM    1  C1  UNL     1      49.438   0.584 106.412  1.00  0.00     0.136 C 
ENDROOT
BRANCH   1   2
HETATM    2  C2  UNL     1      50.099   1.306 105.135  1.00  0.00     0.259 C 
HETATM    3  C16 UNL     1      50.451   0.235 104.061  1.00  0.00     0.046 C 
BRANCH   2   4
HETATM    4  N1  UNL     1      49.232   2.326 104.430  1.00  0.00     0.096 N 
HETATM    5  C10 UNL     1      49.662   3.739 104.404  1.00  0.00     0.277 C 
HETATM    6  C11 UNL     1      50.598   4.103 103.240  1.00  0.00     0.063 C 
HETATM    7  C12 UNL     1      49.919   3.850 101.915  1.00  0.00    -0.086 C 
HETATM    8  C13 UNL     1      48.689   2.978 101.994  1.00  0.00     0.063 C 
HETATM    9  C15 UNL     1      50.381   4.356 100.762  1.00  0.00     0.014 C 
HETATM   10  C14 UNL     1      48.881   1.871 103.048  1.00  0.00     0.277 C 
ENDBRANCH   2   4
ENDBRANCH   1   2
BRANCH   1  11
HETATM   11  C3  UNL     1      47.882   0.521 106.289  1.00  0.00     0.197 C 
BRANCH  11  12
HETATM   12  N2  UNL     1      47.350  -0.735 105.802  1.00  0.00    -0.259 N 
HETATM   13  N3  UNL     1      47.264  -1.805 106.620  1.00  0.00    -0.165 NA
HETATM   14  C17 UNL     1      46.828  -2.743 105.776  1.00  0.00     0.256 A 
HETATM   15  N4  UNL     1      46.683  -2.341 104.480  1.00  0.00    -0.234 NA
HETATM   16  C18 UNL     1      47.030  -1.075 104.524  1.00  0.00     0.230 A 
ENDBRANCH  11  12
ENDBRANCH   1  11
BRANCH   1  17
HETATM   17  C4  UNL     1      49.754   1.269 107.756  1.00  0.00     0.019 A 
HETATM   18  C5  UNL     1      50.301   2.564 107.822  1.00  0.00     0.016 A 
HETATM   19  C6  UNL     1      50.589   3.157 109.054  1.00  0.00     0.043 A 
HETATM   20  C7  UNL     1      50.334   2.462 110.231  1.00  0.00     0.119 A 
HETATM   21  C8  UNL     1      49.796   1.185 110.202  1.00  0.00     0.085 A 
HETATM   22  F1  UNL     1      50.611   3.034 111.409  1.00  0.00    -0.206 F 
HETATM   23  C9  UNL     1      49.512   0.604 108.972  1.00  0.00     0.128 A 
HETATM   24  F2  UNL     1      48.986  -0.630 108.957  1.00  0.00    -0.205 F 
ENDBRANCH   1  17
BRANCH   1  25
HETATM   25  O1  UNL     1      50.002  -0.742 106.458  1.00  0.00    -0.381 OA
HETATM   26  H20 UNL     1      49.717  -1.136 107.308  1.00  0.00     0.211 HD
ENDBRANCH   1  25
TORSDOF 6
ENDMDL
