MODEL 1
REMARK VINA RESULT:      -7.7      0.000      0.000
REMARK  7 active torsions:
REMARK  status: ('A' for Active; 'I' for Inactive)
REMARK    1  A    between atoms: C2_2  and  C7_8 
REMARK    2  A    between atoms: C5_5  and  O1_7 
REMARK    3  A    between atoms: C7_8  and  C8_9 
REMARK    4  A    between atoms: C7_8  and  O3_24 
REMARK    5  A    between atoms: C8_9  and  N1_10 
REMARK    6  A    between atoms: C11_13  and  C14_16 
REMARK    7  A    between atoms: C11_13  and  O2_22 
ROOT
HETATM    1  N1  UNL     1      47.820  -2.280 106.122  1.00  0.00     0.095 N 
HETATM    2  C9  UNL     1      47.780  -0.954 105.455  1.00  0.00     0.276 C 
HETATM    3  C10 UNL     1      48.124   0.226 106.375  1.00  0.00     0.073 C 
HETATM    4  C11 UNL     1      49.086  -0.202 107.490  1.00  0.00     0.088 C 
HETATM    5  C12 UNL     1      48.417  -1.303 108.333  1.00  0.00     0.073 C 
HETATM    6  C13 UNL     1      47.420  -2.155 107.529  1.00  0.00     0.276 C 
ENDROOT
BRANCH   1   7
HETATM    7  C8  UNL     1      47.036  -3.295 105.329  1.00  0.00     0.252 C 
HETATM    8  C20 UNL     1      47.474  -3.158 103.856  1.00  0.00     0.046 C 
BRANCH   7   9
HETATM    9  C7  UNL     1      47.167  -4.798 105.792  1.00  0.00     0.184 C 
BRANCH   9  10
HETATM   10  C2  UNL     1      48.566  -5.384 105.702  1.00  0.00    -0.027 A 
HETATM   11  C1  UNL     1      49.008  -6.021 104.530  1.00  0.00     0.012 A 
HETATM   12  C6  UNL     1      50.295  -6.562 104.454  1.00  0.00     0.037 A 
HETATM   13  C5  UNL     1      51.141  -6.467 105.552  1.00  0.00     0.065 A 
HETATM   14  C4  UNL     1      50.722  -5.844 106.722  1.00  0.00     0.037 A 
HETATM   15  C3  UNL     1      49.437  -5.304 106.800  1.00  0.00     0.012 A 
BRANCH  13  16
HETATM   16  O1  UNL     1      52.404  -6.979 105.523  1.00  0.00    -0.361 OA
HETATM   17  H5  UNL     1      52.647  -7.155 104.601  1.00  0.00     0.217 HD
ENDBRANCH  13  16
ENDBRANCH   9  10
BRANCH   9  18
HETATM   18  O3  UNL     1      46.330  -5.641 104.982  1.00  0.00    -0.389 OA
HETATM   19  H25 UNL     1      46.076  -5.120 104.200  1.00  0.00     0.210 HD
ENDBRANCH   9  18
ENDBRANCH   7   9
ENDBRANCH   1   7
BRANCH   4  20
HETATM   20  C14 UNL     1      49.567   0.928 108.400  1.00  0.00    -0.024 A 
HETATM   21  C15 UNL     1      49.699   0.778 109.790  1.00  0.00     0.010 A 
HETATM   22  C16 UNL     1      50.175   1.824 110.587  1.00  0.00     0.001 A 
HETATM   23  C17 UNL     1      50.533   3.039 110.010  1.00  0.00     0.000 A 
HETATM   24  C18 UNL     1      50.420   3.209 108.635  1.00  0.00     0.001 A 
HETATM   25  C19 UNL     1      49.945   2.164 107.839  1.00  0.00     0.010 A 
ENDBRANCH   4  20
BRANCH   4  26
HETATM   26  O2  UNL     1      50.252  -0.760 106.852  1.00  0.00    -0.385 OA
HETATM   27  H21 UNL     1      50.131  -1.730 106.888  1.00  0.00     0.211 HD
ENDBRANCH   4  26
TORSDOF 7
ENDMDL
