MODEL 1
REMARK VINA RESULT:      -7.8      0.000      0.000
REMARK  4 active torsions:
REMARK  status: ('A' for Active; 'I' for Inactive)
REMARK    1  A    between atoms: N1_2  and  C5_8 
REMARK    2  A    between atoms: C5_8  and  C6_9 
REMARK    3  A    between atoms: C8_13  and  N4_14 
REMARK    4  A    between atoms: C12_18  and  S1_21 
ROOT
HETATM    1  C1  UNL     1      50.258   4.792  99.852  1.00  0.00     0.331 C 
HETATM    2  N1  UNL     1      49.972   3.454  99.527  1.00  0.00    -0.264 N 
HETATM    3  C2  UNL     1      49.811   2.422 100.466  1.00  0.00     0.282 A 
HETATM    4  C3  UNL     1      49.969   2.866 101.805  1.00  0.00     0.149 A 
HETATM    5  C4  UNL     1      50.247   4.149 102.139  1.00  0.00     0.166 A 
HETATM    6  N2  UNL     1      50.390   5.100 101.184  1.00  0.00    -0.291 N 
HETATM    7  O1  UNL     1      50.393   5.679  99.006  1.00  0.00    -0.246 OA
HETATM    8  O2  UNL     1      49.557   1.255 100.184  1.00  0.00    -0.265 OA
HETATM    9  N3  UNL     1      49.897   2.203 102.993  1.00  0.00    -0.333 N 
HETATM   10  C8  UNL     1      50.132   3.123 104.002  1.00  0.00     0.141 A 
HETATM   11  N4  UNL     1      50.352   4.326 103.475  1.00  0.00    -0.210 NA
HETATM   12  C9  UNL     1      50.144   2.791 105.433  1.00  0.00     0.010 A 
HETATM   13  C10 UNL     1      49.768   1.524 105.913  1.00  0.00     0.017 A 
HETATM   14  C11 UNL     1      49.797   1.242 107.281  1.00  0.00     0.027 A 
HETATM   15  C12 UNL     1      50.207   2.227 108.182  1.00  0.00     0.080 A 
HETATM   16  C13 UNL     1      50.569   3.496 107.732  1.00  0.00     0.027 A 
HETATM   17  C14 UNL     1      50.538   3.771 106.361  1.00  0.00     0.017 A 
HETATM   18  K1  UNL     1      49.669   2.952 102.881  1.00  0.00     0.000 K 
HETATM   19  H1  UNL     1      50.595   6.048 101.467  1.00  0.00     0.172 HD
HETATM   20  H9  UNL     1      49.715   1.217 103.112  1.00  0.00     0.168 HD
ENDROOT
BRANCH  15  21
HETATM   21  S1  UNL     1      50.213   1.846 109.954  1.00  0.00     0.137 S 
HETATM   22  O3  UNL     1      51.588   1.403 110.153  1.00  0.00    -0.591 OA
HETATM   23  O4  UNL     1      49.192   0.805 110.054  1.00  0.00    -0.591 OA
HETATM   24  O5  UNL     1      49.862   3.120 110.573  1.00  0.00    -0.591 OA
ENDBRANCH  15  21
BRANCH   2  25
HETATM   25  C5  UNL     1      49.824   3.121  98.116  1.00  0.00     0.137 C 
BRANCH  25  26
HETATM   26  C6  UNL     1      51.142   2.705  97.452  1.00  0.00     0.016 C 
HETATM   27  C7  UNL     1      51.049   2.601  95.937  1.00  0.00     0.006 C 
ENDBRANCH  25  26
ENDBRANCH   2  25
TORSDOF 4
ENDMDL
