MODEL 1
REMARK VINA RESULT:      -9.3      0.000      0.000
REMARK  4 active torsions:
REMARK  status: ('A' for Active; 'I' for Inactive)
REMARK    1  A    between atoms: C3_3  and  C7_7 
REMARK    2  A    between atoms: C20_20  and  C21_21 
REMARK    3  A    between atoms: C21_21  and  C22_22 
REMARK    4  A    between atoms: C25_25  and  C28_28 
ROOT
HETATM    1  C1  UNL     1      46.456  -7.743 107.100  1.00  0.00     0.041 C 
HETATM    2  C2  UNL     1      47.781  -7.615 106.410  1.00  0.00    -0.013 C 
HETATM    3  C3  UNL     1      48.464  -6.456 106.359  1.00  0.00    -0.019 A 
HETATM    4  C4  UNL     1      47.854  -5.255 106.994  1.00  0.00    -0.017 A 
HETATM    5  C5  UNL     1      46.795  -5.382 107.926  1.00  0.00    -0.039 A 
HETATM    6  C6  UNL     1      46.283  -6.776 108.301  1.00  0.00    -0.017 C 
HETATM    7  C14 UNL     1      44.788  -6.801 108.689  1.00  0.00     0.020 C 
HETATM    8  C15 UNL     1      47.103  -7.282 109.511  1.00  0.00     0.020 C 
HETATM    9  C16 UNL     1      48.339  -3.975 106.674  1.00  0.00     0.033 A 
HETATM   10  C17 UNL     1      47.800  -2.833 107.269  1.00  0.00     0.018 A 
HETATM   11  C18 UNL     1      46.771  -2.958 108.197  1.00  0.00     0.021 A 
HETATM   12  C19 UNL     1      46.275  -4.220 108.527  1.00  0.00     0.010 A 
HETATM   13  C20 UNL     1      48.308  -1.540 106.932  1.00  0.00    -0.061 A 
HETATM   14 NA1  UNL     1      48.889  -3.793 106.448  1.00  0.00     0.000 Na
ENDROOT
BRANCH  13  15
HETATM   15  C21 UNL     1      48.734  -0.451 106.654  1.00  0.00    -0.061 C 
BRANCH  15  16
HETATM   16  C22 UNL     1      49.239   0.846 106.322  1.00  0.00     0.018 A 
HETATM   17  C23 UNL     1      49.360   1.228 104.985  1.00  0.00     0.022 A 
HETATM   18  C24 UNL     1      49.849   2.499 104.663  1.00  0.00     0.020 A 
HETATM   19  C25 UNL     1      50.224   3.405 105.667  1.00  0.00     0.040 A 
HETATM   20  C26 UNL     1      50.096   3.003 107.006  1.00  0.00     0.020 A 
HETATM   21  C27 UNL     1      49.607   1.735 107.334  1.00  0.00     0.022 A 
BRANCH  19  22
HETATM   22  C28 UNL     1      50.753   4.783 105.315  1.00  0.00     0.209 C 
HETATM   23  O1  UNL     1      51.509   4.872 104.296  1.00  0.00    -0.644 OA
HETATM   24  O2  UNL     1      50.400   5.748 106.065  1.00  0.00    -0.644 OA
ENDBRANCH  19  22
ENDBRANCH  15  16
ENDBRANCH  13  15
BRANCH   3  25
HETATM   25  C7  UNL     1      49.768  -6.491 105.662  1.00  0.00    -0.025 A 
HETATM   26  C8  UNL     1      49.813  -6.681 104.276  1.00  0.00     0.013 A 
HETATM   27  C9  UNL     1      51.040  -6.735 103.609  1.00  0.00     0.007 A 
HETATM   28  C10 UNL     1      52.239  -6.590 104.318  1.00  0.00    -0.062 A 
HETATM   29  C11 UNL     1      52.194  -6.414 105.705  1.00  0.00     0.007 A 
HETATM   30  C13 UNL     1      53.557  -6.696 103.607  1.00  0.00     0.048 C 
HETATM   31  C12 UNL     1      50.967  -6.360 106.373  1.00  0.00     0.013 A 
ENDBRANCH   3  25
TORSDOF 4
ENDMDL
