MODEL 1
REMARK VINA RESULT:      -7.9      0.000      0.000
REMARK  2 active torsions:
REMARK  status: ('A' for Active; 'I' for Inactive)
REMARK    1  A    between atoms: C2_2  and  N1_9 
REMARK    2  A    between atoms: C16_20  and  N3_23 
REMARK       I    between atoms: N3_23  and  C19_24 
REMARK       I    between atoms: C19_24  and  N4_25 
ROOT
HETATM    1  N1  UNL     1      48.839   0.368 106.577  1.00  0.00    -0.376 N 
HETATM    2  C7  UNL     1      49.405  -0.425 105.514  1.00  0.00     0.142 C 
HETATM    3  C8  UNL     1      48.382  -0.370 104.367  1.00  0.00     0.136 C 
HETATM    4  N2  UNL     1      47.085  -0.689 104.724  1.00  0.00    -0.409 N 
HETATM    5  C9  UNL     1      46.536  -0.061 105.884  1.00  0.00     0.136 C 
HETATM    6  C10 UNL     1      47.526  -0.047 107.050  1.00  0.00     0.142 C 
HETATM    7  C11 UNL     1      46.306  -1.647 104.097  1.00  0.00     0.117 A 
HETATM    8  C12 UNL     1      46.578  -3.087 104.225  1.00  0.00     0.024 A 
HETATM    9  C13 UNL     1      47.866  -3.632 103.727  1.00  0.00    -0.013 A 
HETATM   10  C14 UNL     1      48.116  -3.439 102.266  1.00  0.00     0.007 A 
HETATM   11  C15 UNL     1      48.265  -4.726 101.487  1.00  0.00     0.026 C 
HETATM   12  C16 UNL     1      47.105  -5.664 101.762  1.00  0.00     0.086 C 
HETATM   13  C17 UNL     1      46.862  -5.831 103.231  1.00  0.00     0.026 C 
HETATM   14  C18 UNL     1      47.894  -5.114 104.033  1.00  0.00     0.007 C 
HETATM   15 CL3  UNL     1      48.143  -2.445 104.233  1.00  0.00    -0.145 Cl
HETATM   16  H33 UNL     1      47.840  -3.525 103.443  1.00  0.00     0.145 HD
ENDROOT
BRANCH   1  17
HETATM   17  C2  UNL     1      49.558   1.474 107.077  1.00  0.00     0.054 A 
HETATM   18  C1  UNL     1      49.894   2.472 106.163  1.00  0.00     0.031 A 
HETATM   19  C6  UNL     1      50.585   3.566 106.627  1.00  0.00     0.004 A 
HETATM   20  C5  UNL     1      50.925   3.658 107.959  1.00  0.00     0.026 A 
HETATM   21  C4  UNL     1      50.591   2.662 108.872  1.00  0.00     0.058 A 
HETATM   22  C3  UNL     1      49.900   1.566 108.416  1.00  0.00     0.082 A 
HETATM   23 CL1  UNL     1      51.043   2.818 110.544  1.00  0.00    -0.082 Cl
HETATM   24 CL2  UNL     1      49.451   0.273 109.527  1.00  0.00    -0.080 Cl
ENDBRANCH   1  17
BRANCH  12  25
HETATM   25  N3  UNL     1      47.443  -6.946 101.187  1.00  0.00    -0.338 N 
HETATM   26  C19 UNL     1      46.479  -7.708 100.465  1.00  0.00     0.317 C 
HETATM   27  N4  UNL     1      46.846  -8.953  99.918  1.00  0.00    -0.343 N 
HETATM   28  O1  UNL     1      45.322  -7.217 100.352  1.00  0.00    -0.247 OA
HETATM   29  C20 UNL     1      45.842  -9.715  99.200  1.00  0.00     0.154 C 
HETATM   30  C21 UNL     1      48.170  -9.523 100.024  1.00  0.00     0.154 C 
HETATM   31  H26 UNL     1      48.407  -7.369 101.277  1.00  0.00     0.164 HD
ENDBRANCH  12  25
TORSDOF 2
ENDMDL
