MODEL 1
REMARK VINA RESULT:      -8.8      0.000      0.000
REMARK  3 active torsions:
REMARK  status: ('A' for Active; 'I' for Inactive)
REMARK    1  A    between atoms: C4_5  and  O2_15 
REMARK    2  A    between atoms: N2_12  and  C12_16 
REMARK    3  A    between atoms: C16_20  and  O3_23 
ROOT
HETATM    1  C1  UNL     1      50.254   3.130 107.327  1.00  0.00     0.043 A 
HETATM    2  C2  UNL     1      49.987   1.823 106.903  1.00  0.00     0.073 A 
HETATM    3  N1  UNL     1      49.764   1.467 105.559  1.00  0.00    -0.231 NA
HETATM    4  C3  UNL     1      50.054   2.310 104.622  1.00  0.00     0.150 C 
HETATM    5  C4  UNL     1      50.806   3.612 104.928  1.00  0.00     0.184 C 
HETATM    6  C5  UNL     1      50.445   4.160 106.292  1.00  0.00     0.203 C 
HETATM    7  C6  UNL     1      50.375   3.451 108.683  1.00  0.00     0.024 A 
HETATM    8  C7  UNL     1      50.230   2.450 109.650  1.00  0.00    -0.061 A 
HETATM    9  C8  UNL     1      49.988   1.136 109.235  1.00  0.00     0.009 A 
HETATM   10  C9  UNL     1      49.857   0.829 107.875  1.00  0.00     0.033 A 
HETATM   11  O1  UNL     1      50.389   5.354 106.568  1.00  0.00    -0.288 OA
HETATM   12  N2  UNL     1      49.812   2.245 103.258  1.00  0.00    -0.332 N 
HETATM   13  C10 UNL     1      50.251   3.480 102.601  1.00  0.00     0.134 C 
HETATM   14  C11 UNL     1      50.359   4.478 103.757  1.00  0.00     0.075 C 
HETATM   15  C18 UNL     1      50.393   2.771 111.107  1.00  0.00     0.048 C 
ENDROOT
BRANCH  12  16
HETATM   16  C12 UNL     1      49.295   1.178 102.506  1.00  0.00     0.038 A 
HETATM   17  C13 UNL     1      50.121   0.189 101.943  1.00  0.00     0.030 A 
HETATM   18  C14 UNL     1      49.604  -0.877 101.191  1.00  0.00     0.005 A 
HETATM   19  C15 UNL     1      48.234  -0.983 100.978  1.00  0.00     0.036 A 
HETATM   20  C16 UNL     1      47.400  -0.019 101.521  1.00  0.00     0.067 A 
HETATM   21  C17 UNL     1      47.915   1.041 102.269  1.00  0.00     0.066 A 
BRANCH  20  22
HETATM   22  O3  UNL     1      46.048  -0.069 101.343  1.00  0.00    -0.361 OA
HETATM   23  H16 UNL     1      45.848   0.189 100.428  1.00  0.00     0.217 HD
ENDBRANCH  20  22
ENDBRANCH  12  16
BRANCH   5  24
HETATM   24  O2  UNL     1      52.211   3.388 104.820  1.00  0.00    -0.374 OA
HETATM   25  H8  UNL     1      52.630   4.253 104.655  1.00  0.00     0.211 HD
ENDBRANCH   5  24
TORSDOF 3
ENDMDL
