MODEL 1
REMARK VINA RESULT:      -8.7      0.000      0.000
REMARK  4 active torsions:
REMARK  status: ('A' for Active; 'I' for Inactive)
REMARK    1  A    between atoms: C5_5  and  S1_11 
REMARK    2  A    between atoms: S1_11  and  N3_12 
REMARK    3  A    between atoms: N3_12  and  C9_17 
REMARK    4  A    between atoms: C12_20  and  C15_23 
ROOT
HETATM    1  S1  UNL     1      51.251   2.617 101.691  1.00  0.00     0.263 S 
HETATM    2  O3  UNL     1      52.310   2.065 102.505  1.00  0.00    -0.200 OA
HETATM    3  O4  UNL     1      51.545   3.443 100.540  1.00  0.00    -0.200 OA
ENDROOT
BRANCH   1   4
HETATM    4  C5  UNL     1      50.217   1.287 101.124  1.00  0.00     0.081 A 
HETATM    5  C4  UNL     1      50.590  -0.041 101.372  1.00  0.00     0.027 A 
HETATM    6  C3  UNL     1      49.782  -1.084 100.913  1.00  0.00     0.032 A 
HETATM    7  C2  UNL     1      48.614  -0.793 100.210  1.00  0.00     0.052 A 
HETATM    8  C1  UNL     1      48.252   0.533  99.964  1.00  0.00     0.060 A 
HETATM    9  N2  UNL     1      47.798  -1.830  99.751  1.00  0.00    -0.308 N 
HETATM   10  C6  UNL     1      49.053   1.586 100.413  1.00  0.00     0.044 A 
HETATM   11  C7  UNL     1      47.003   0.790  99.222  1.00  0.00     0.261 A 
HETATM   12  N1  UNL     1      46.305  -0.319  98.812  1.00  0.00    -0.275 N 
HETATM   13  O1  UNL     1      46.614   1.930  99.000  1.00  0.00    -0.267 OA
HETATM   14  C8  UNL     1      46.643  -1.620  99.052  1.00  0.00     0.327 A 
HETATM   15  H4  UNL     1      45.448  -0.161  98.305  1.00  0.00     0.173 HD
HETATM   16  O2  UNL     1      45.949  -2.554  98.667  1.00  0.00    -0.247 OA
HETATM   17  H5  UNL     1      48.042  -2.797  99.916  1.00  0.00     0.170 HD
ENDBRANCH   1   4
BRANCH   1  18
HETATM   18  N3  UNL     1      50.195   3.510 102.662  1.00  0.00    -0.281 N 
HETATM   19  H6  UNL     1      50.195   4.492 102.385  1.00  0.00     0.179 HD
BRANCH  18  20
HETATM   20  C9  UNL     1      50.167   3.223 104.053  1.00  0.00     0.042 A 
HETATM   21  C10 UNL     1      50.593   4.179 104.971  1.00  0.00     0.031 A 
HETATM   22  C11 UNL     1      50.596   3.877 106.337  1.00  0.00     0.014 A 
HETATM   23  C12 UNL     1      50.182   2.616 106.802  1.00  0.00    -0.026 A 
HETATM   24  C13 UNL     1      49.766   1.667 105.854  1.00  0.00     0.014 A 
HETATM   25  C14 UNL     1      49.760   1.966 104.488  1.00  0.00     0.031 A 
BRANCH  23  26
HETATM   26  C15 UNL     1      50.187   2.302 108.239  1.00  0.00    -0.023 A 
HETATM   27  C16 UNL     1      50.590   3.249 109.187  1.00  0.00     0.031 A 
HETATM   28  C17 UNL     1      50.577   2.906 110.530  1.00  0.00     0.117 A 
HETATM   29  N4  UNL     1      50.199   1.696 110.993  1.00  0.00    -0.273 NA
HETATM   30  C18 UNL     1      49.813   0.792 110.069  1.00  0.00     0.117 A 
HETATM   31  C19 UNL     1      49.790   1.043 108.706  1.00  0.00     0.031 A 
ENDBRANCH  23  26
ENDBRANCH  18  20
ENDBRANCH   1  18
TORSDOF 4
ENDMDL
