MODEL 1
REMARK VINA RESULT:      -8.0      0.000      0.000
REMARK  6 active torsions:
REMARK  status: ('A' for Active; 'I' for Inactive)
REMARK    1  A    between atoms: C6_6  and  C7_7 
REMARK    2  A    between atoms: C7_7  and  C8_8 
REMARK    3  A    between atoms: C8_8  and  O2_10 
REMARK    4  A    between atoms: C10_12  and  N1_22 
REMARK    5  A    between atoms: C11_13  and  C12_16 
REMARK    6  A    between atoms: C13_17  and  N2_23 
ROOT
HETATM    1  C1  UNL     1      49.335   0.454 109.571  1.00  0.00     0.010 A 
HETATM    2  C2  UNL     1      49.669   1.757 109.951  1.00  0.00     0.002 A 
HETATM    3  C3  UNL     1      49.979   2.711 108.982  1.00  0.00     0.018 A 
HETATM    4  C4  UNL     1      49.943   2.358 107.631  1.00  0.00     0.051 A 
HETATM    5  C5  UNL     1      49.591   1.060 107.246  1.00  0.00     0.097 A 
HETATM    6  C6  UNL     1      49.288   0.092 108.217  1.00  0.00    -0.013 A 
HETATM    7  C9  UNL     1      50.289   3.352 106.595  1.00  0.00     0.220 A 
HETATM    8  C10 UNL     1      50.241   2.847 105.224  1.00  0.00     0.188 A 
HETATM    9  C11 UNL     1      49.878   1.586 104.944  1.00  0.00     0.126 A 
HETATM   10  O3  UNL     1      49.525   0.672 105.927  1.00  0.00    -0.306 OA
HETATM   11  O4  UNL     1      50.593   4.498 106.891  1.00  0.00    -0.285 OA
ENDROOT
BRANCH   9  12
HETATM   12  C12 UNL     1      49.800   1.006 103.590  1.00  0.00     0.034 A 
HETATM   13  C13 UNL     1      48.620   0.874 102.825  1.00  0.00     0.116 A 
HETATM   14  C14 UNL     1      48.668   0.296 101.542  1.00  0.00     0.037 A 
HETATM   15  C15 UNL     1      49.881  -0.148 101.015  1.00  0.00     0.002 A 
HETATM   16  C16 UNL     1      51.050  -0.017 101.756  1.00  0.00     0.001 A 
HETATM   17  C17 UNL     1      51.012   0.557 103.030  1.00  0.00     0.017 A 
BRANCH  13  18
HETATM   18  N2  UNL     1      47.303   1.324 103.320  1.00  0.00    -0.115 N 
HETATM   19  O7  UNL     1      46.887   2.424 102.921  1.00  0.00    -0.532 OA
HETATM   20  O8  UNL     1      46.684   0.599 104.111  1.00  0.00    -0.532 OA
ENDBRANCH  13  18
ENDBRANCH   9  12
BRANCH   8  21
HETATM   21  N1  UNL     1      50.581   3.732 104.158  1.00  0.00    -0.108 N 
HETATM   22  O5  UNL     1      49.654   4.361 103.630  1.00  0.00    -0.532 OA
HETATM   23  O6  UNL     1      51.782   3.847 103.888  1.00  0.00    -0.532 OA
ENDBRANCH   8  21
BRANCH   6  24
HETATM   24  C7  UNL     1      48.974  -1.332 107.825  1.00  0.00     0.151 C 
BRANCH  24  25
HETATM   25  C8  UNL     1      47.490  -1.585 107.747  1.00  0.00     0.143 C 
HETATM   26  O1  UNL     1      46.807  -2.143 108.590  1.00  0.00    -0.650 OA
BRANCH  25  27
HETATM   27  O2  UNL     1      46.929  -1.115 106.615  1.00  0.00    -0.776 OA
HETATM   28  H6  UNL     1      47.472  -1.524 105.906  1.00  0.00     0.167 HD
ENDBRANCH  25  27
ENDBRANCH  24  25
ENDBRANCH   6  24
TORSDOF 6
ENDMDL
