MODEL 1
REMARK VINA RESULT:      -6.0      0.000      0.000
REMARK  23 active torsions:
REMARK  status: ('A' for Active; 'I' for Inactive)
REMARK       I    between atoms: N1_1  and  C1_2 
REMARK    1  A    between atoms: N1_1  and  C3_5 
REMARK    2  A    between atoms: C1_2  and  C2_3 
REMARK    3  A    between atoms: C2_3  and  C21_25 
REMARK    4  A    between atoms: C3_5  and  C4_6 
REMARK    5  A    between atoms: C3_5  and  C5_7 
REMARK    6  A    between atoms: C4_6  and  C6_9 
REMARK    7  A    between atoms: C4_6  and  O3_13 
REMARK    8  A    between atoms: C5_7  and  O2_8 
REMARK    9  A    between atoms: C6_9  and  C7_10 
REMARK   10  A    between atoms: C7_10  and  C8_11 
REMARK   11  A    between atoms: C8_11  and  C9_12 
REMARK   12  A    between atoms: C9_12  and  C10_14 
REMARK   13  A    between atoms: C10_14  and  C11_15 
REMARK   14  A    between atoms: C11_15  and  C12_16 
REMARK   15  A    between atoms: C12_16  and  C13_17 
REMARK   16  A    between atoms: C13_17  and  C14_18 
REMARK   17  A    between atoms: C14_18  and  C15_19 
REMARK   18  A    between atoms: C15_19  and  C16_20 
REMARK   19  A    between atoms: C16_20  and  C17_21 
REMARK   20  A    between atoms: C17_21  and  C18_22 
REMARK   21  A    between atoms: C18_22  and  C19_23 
REMARK   22  A    between atoms: C21_25  and  C22_26 
REMARK   23  A    between atoms: C22_26  and  C23_27 
ROOT
HETATM    1  C4  UNL     1      48.182  -2.040 107.480  1.00  0.00     0.143 C 
ENDROOT
BRANCH   1   2
HETATM    2  C3  UNL     1      47.803  -3.331 106.700  1.00  0.00     0.136 C 
BRANCH   2   3
HETATM    3  N1  UNL     1      48.807  -4.368 106.986  1.00  0.00    -0.352 N 
HETATM    4  C1  UNL     1      49.178  -5.297 106.038  1.00  0.00     0.218 C 
HETATM    5  O1  UNL     1      48.766  -5.278 104.885  1.00  0.00    -0.274 OA
HETATM    6  H1  UNL     1      48.929  -4.616 107.960  1.00  0.00     0.163 HD
BRANCH   4   7
HETATM    7  C2  UNL     1      50.138  -6.339 106.590  1.00  0.00     0.103 C 
BRANCH   7   8
HETATM    8  C21 UNL     1      51.548  -6.267 106.005  1.00  0.00     0.009 C 
BRANCH   8   9
HETATM    9  C22 UNL     1      51.858  -7.360 104.974  1.00  0.00     0.000 C 
BRANCH   9  10
HETATM   10  C23 UNL     1      52.254  -6.835 103.594  1.00  0.00    -0.005 C 
HETATM   11  C24 UNL     1      51.100  -6.955 102.610  1.00  0.00     0.005 C 
ENDBRANCH   9  10
ENDBRANCH   8   9
ENDBRANCH   7   8
ENDBRANCH   4   7
ENDBRANCH   2   3
BRANCH   2  12
HETATM   12  C5  UNL     1      46.391  -3.887 107.008  1.00  0.00     0.191 C 
BRANCH  12  13
HETATM   13  O2  UNL     1      46.292  -4.548 108.261  1.00  0.00    -0.399 OA
HETATM   14  H8  UNL     1      47.207  -4.587 108.604  1.00  0.00     0.209 HD
ENDBRANCH  12  13
ENDBRANCH   2  12
ENDBRANCH   1   2
BRANCH   1  15
HETATM   15  C6  UNL     1      48.164  -0.785 106.594  1.00  0.00     0.034 C 
BRANCH  15  16
HETATM   16  C7  UNL     1      48.701   0.491 107.264  1.00  0.00     0.002 C 
BRANCH  16  17
HETATM   17  C8  UNL     1      50.001   0.280 108.047  1.00  0.00     0.000 C 
BRANCH  17  18
HETATM   18  C9  UNL     1      49.877   0.640 109.534  1.00  0.00     0.000 C 
BRANCH  18  19
HETATM   19  C10 UNL     1      49.580   2.119 109.808  1.00  0.00     0.000 C 
BRANCH  19  20
HETATM   20  C11 UNL     1      50.824   2.949 110.132  1.00  0.00     0.000 C 
BRANCH  20  21
HETATM   21  C12 UNL     1      51.639   3.346 108.897  1.00  0.00     0.000 C 
BRANCH  21  22
HETATM   22  C13 UNL     1      50.868   4.067 107.788  1.00  0.00     0.000 C 
BRANCH  22  23
HETATM   23  C14 UNL     1      50.900   3.404 106.408  1.00  0.00     0.000 C 
BRANCH  23  24
HETATM   24  C15 UNL     1      50.132   4.131 105.299  1.00  0.00     0.000 C 
BRANCH  24  25
HETATM   25  C16 UNL     1      50.286   3.483 103.921  1.00  0.00     0.000 C 
BRANCH  25  26
HETATM   26  C17 UNL     1      51.444   2.478 103.861  1.00  0.00     0.000 C 
BRANCH  26  27
HETATM   27  C18 UNL     1      50.985   1.051 103.553  1.00  0.00    -0.000 C 
BRANCH  27  28
HETATM   28  C19 UNL     1      51.782   0.394 102.423  1.00  0.00    -0.005 C 
HETATM   29  C20 UNL     1      50.910  -0.118 101.289  1.00  0.00     0.005 C 
ENDBRANCH  27  28
ENDBRANCH  26  27
ENDBRANCH  25  26
ENDBRANCH  24  25
ENDBRANCH  23  24
ENDBRANCH  22  23
ENDBRANCH  21  22
ENDBRANCH  20  21
ENDBRANCH  19  20
ENDBRANCH  18  19
ENDBRANCH  17  18
ENDBRANCH  16  17
ENDBRANCH  15  16
ENDBRANCH   1  15
BRANCH   1  30
HETATM   30  O3  UNL     1      47.305  -1.898 108.601  1.00  0.00    -0.393 OA
HETATM   31  H17 UNL     1      46.684  -2.650 108.574  1.00  0.00     0.210 HD
ENDBRANCH   1  30
TORSDOF 23
ENDMDL
