MODEL 1
REMARK VINA RESULT:      -7.5      0.000      0.000
REMARK  8 active torsions:
REMARK  status: ('A' for Active; 'I' for Inactive)
REMARK    1  A    between atoms: C3_3  and  O2_9 
REMARK    2  A    between atoms: C5_5  and  C7_10 
REMARK    3  A    between atoms: C6_6  and  O1_7 
REMARK    4  A    between atoms: C7_10  and  C8_11 
REMARK    5  A    between atoms: C8_11  and  N1_12 
REMARK    6  A    between atoms: N1_12  and  C9_13 
REMARK       I    between atoms: N1_12  and  C19_24 
REMARK    7  A    between atoms: C9_13  and  C10_14 
REMARK    8  A    between atoms: C11_15  and  O3_20 
ROOT
HETATM    1  C8  UNL     1      48.535   0.605 105.285  1.00  0.00     0.131 C 
ENDROOT
BRANCH   1   2
HETATM    2  C7  UNL     1      48.786  -0.253 104.039  1.00  0.00     0.061 C 
BRANCH   2   3
HETATM    3  C5  UNL     1      49.612   0.476 103.001  1.00  0.00    -0.021 A 
HETATM    4  C4  UNL     1      50.020   1.798 103.265  1.00  0.00     0.048 A 
HETATM    5  C3  UNL     1      50.788   2.516 102.344  1.00  0.00     0.085 A 
HETATM    6  C2  UNL     1      51.151   1.887 101.146  1.00  0.00     0.042 A 
HETATM    7  C1  UNL     1      50.757   0.569 100.873  1.00  0.00     0.058 A 
HETATM    8  I1  UNL     1      52.308   2.867  99.686  1.00  0.00    -0.042 I 
HETATM    9  C6  UNL     1      49.988  -0.141 101.796  1.00  0.00     0.075 A 
BRANCH   5  10
HETATM   10  O2  UNL     1      51.215   3.803 102.534  1.00  0.00    -0.355 OA
HETATM   11  C17 UNL     1      50.230   4.799 102.772  1.00  0.00     0.210 C 
ENDBRANCH   5  10
BRANCH   9  12
HETATM   12  O1  UNL     1      49.565  -1.431 101.630  1.00  0.00    -0.355 OA
HETATM   13  C16 UNL     1      48.797  -1.731 100.472  1.00  0.00     0.210 C 
ENDBRANCH   9  12
ENDBRANCH   2   3
ENDBRANCH   1   2
BRANCH   1  14
HETATM   14  N1  UNL     1      48.684  -0.149 106.537  1.00  0.00    -0.348 N 
HETATM   15  C19 UNL     1      47.616  -0.927 106.961  1.00  0.00     0.216 C 
HETATM   16  C20 UNL     1      47.796  -1.743 108.215  1.00  0.00     0.117 C 
HETATM   17  O4  UNL     1      46.546  -0.970 106.354  1.00  0.00    -0.274 OA
BRANCH  14  18
HETATM   18  C9  UNL     1      49.982  -0.060 107.216  1.00  0.00     0.167 C 
BRANCH  18  19
HETATM   19  C10 UNL     1      50.017   0.989 108.308  1.00  0.00    -0.007 A 
HETATM   20  C11 UNL     1      50.359   2.328 108.042  1.00  0.00     0.076 A 
HETATM   21  C12 UNL     1      50.387   3.256 109.089  1.00  0.00     0.037 A 
HETATM   22  C13 UNL     1      50.073   2.864 110.393  1.00  0.00     0.003 A 
HETATM   23  C14 UNL     1      49.734   1.542 110.663  1.00  0.00     0.001 A 
HETATM   24  C15 UNL     1      49.709   0.610 109.629  1.00  0.00     0.011 A 
BRANCH  20  25
HETATM   25  O3  UNL     1      50.636   2.631 106.735  1.00  0.00    -0.355 OA
HETATM   26  C18 UNL     1      50.496   3.987 106.327  1.00  0.00     0.210 C 
ENDBRANCH  20  25
ENDBRANCH  18  19
ENDBRANCH  14  18
ENDBRANCH   1  14
TORSDOF 8
ENDMDL
