MODEL 1
REMARK VINA RESULT:      -7.5      0.000      0.000
REMARK  10 active torsions:
REMARK  status: ('A' for Active; 'I' for Inactive)
REMARK    1  A    between atoms: C1_1  and  C2_2 
REMARK       I    between atoms: C1_1  and  N1_4 
REMARK    2  A    between atoms: N1_4  and  C11_15 
REMARK    3  A    between atoms: N3_6  and  C9_13 
REMARK    4  A    between atoms: C9_13  and  C10_14 
REMARK    5  A    between atoms: C10_14  and  C16_22 
REMARK    6  A    between atoms: C11_15  and  C12_16 
REMARK    7  A    between atoms: C11_15  and  C13_17 
REMARK    8  A    between atoms: C13_17  and  O2_18 
REMARK    9  A    between atoms: C16_22  and  C17_23 
REMARK   10  A    between atoms: C17_23  and  C18_24 
ROOT
HETATM    1  C2  UNL     1      49.842   1.633 106.591  1.00  0.00     0.157 A 
HETATM    2  N2  UNL     1      49.219   0.442 106.559  1.00  0.00    -0.166 NA
HETATM    3  N3  UNL     1      49.094   0.088 107.849  1.00  0.00    -0.268 N 
HETATM    4  C3  UNL     1      49.603   1.003 108.734  1.00  0.00     0.065 A 
HETATM    5  C4  UNL     1      50.091   2.041 107.941  1.00  0.00     0.028 A 
HETATM    6  C5  UNL     1      49.681   1.024 110.135  1.00  0.00     0.032 A 
HETATM    7  C6  UNL     1      50.263   2.142 110.738  1.00  0.00     0.002 A 
HETATM    8  C7  UNL     1      50.740   3.202 109.973  1.00  0.00     0.001 A 
HETATM    9  C8  UNL     1      50.658   3.168 108.576  1.00  0.00     0.016 A 
ENDROOT
BRANCH   1  10
HETATM   10  C1  UNL     1      50.189   2.336 105.342  1.00  0.00     0.273 C 
HETATM   11  O1  UNL     1      50.297   3.557 105.259  1.00  0.00    -0.266 OA
HETATM   12  N1  UNL     1      50.344   1.512 104.238  1.00  0.00    -0.341 N 
HETATM   13  H1  UNL     1      49.855   0.626 104.306  1.00  0.00     0.163 HD
BRANCH  12  14
HETATM   14  C11 UNL     1      50.428   2.089 102.890  1.00  0.00     0.192 C 
BRANCH  14  15
HETATM   15  C12 UNL     1      51.403   1.289 101.974  1.00  0.00    -0.022 C 
HETATM   16  C14 UNL     1      52.456   0.576 102.850  1.00  0.00     0.017 C 
HETATM   17  C15 UNL     1      50.680   0.228 101.123  1.00  0.00     0.017 C 
HETATM   18  C19 UNL     1      52.154   2.245 101.025  1.00  0.00     0.017 C 
ENDBRANCH  14  15
BRANCH  14  19
HETATM   19  C13 UNL     1      48.990   2.139 102.347  1.00  0.00     0.282 C 
HETATM   20  O3  UNL     1      48.111   1.344 102.662  1.00  0.00    -0.263 OA
BRANCH  19  21
HETATM   21  O2  UNL     1      48.840   3.164 101.462  1.00  0.00    -0.325 OA
HETATM   22  C20 UNL     1      48.128   2.809 100.277  1.00  0.00     0.213 C 
ENDBRANCH  19  21
ENDBRANCH  14  19
ENDBRANCH  12  14
ENDBRANCH   1  10
BRANCH   3  23
HETATM   23  C9  UNL     1      48.449  -1.175 108.163  1.00  0.00     0.151 C 
BRANCH  23  24
HETATM   24  C10 UNL     1      48.339  -2.118 106.963  1.00  0.00     0.022 C 
BRANCH  24  25
HETATM   25  C16 UNL     1      46.896  -2.312 106.489  1.00  0.00     0.004 C 
BRANCH  25  26
HETATM   26  C17 UNL     1      46.722  -1.858 105.037  1.00  0.00     0.031 C 
BRANCH  26  27
HETATM   27  C18 UNL     1      46.175  -0.443 104.960  1.00  0.00     0.222 C 
HETATM   28  F1  UNL     1      45.905  -0.004 106.217  1.00  0.00    -0.255 F 
ENDBRANCH  26  27
ENDBRANCH  25  26
ENDBRANCH  24  25
ENDBRANCH  23  24
ENDBRANCH   3  23
TORSDOF 10
ENDMDL
