MODEL 1
REMARK VINA RESULT:      -7.3      0.000      0.000
REMARK  3 active torsions:
REMARK  status: ('A' for Active; 'I' for Inactive)
REMARK    1  A    between atoms: C7_7  and  C9_13 
REMARK    2  A    between atoms: C7_7  and  C14_18 
REMARK    3  A    between atoms: C10_14  and  C11_15 
ROOT
HETATM    1  C1  UNL     1      49.758   1.457 109.321  1.00  0.00     0.026 A 
HETATM    2  C2  UNL     1      49.943   2.121 108.110  1.00  0.00     0.034 A 
HETATM    3  C3  UNL     1      49.601   1.504 106.905  1.00  0.00     0.037 A 
HETATM    4  C4  UNL     1      49.085   0.197 106.902  1.00  0.00     0.027 A 
HETATM    5  C5  UNL     1      48.911  -0.454 108.121  1.00  0.00     0.047 A 
HETATM    6  C6  UNL     1      49.231   0.166 109.328  1.00  0.00     0.032 A 
HETATM    7  C7  UNL     1      48.593  -0.519 105.652  1.00  0.00     0.261 C 
HETATM    8  O1  UNL     1      48.644  -1.959 105.821  1.00  0.00    -0.265 OA
HETATM    9  C8  UNL     1      48.264  -2.515 106.995  1.00  0.00     0.367 C 
HETATM   10  N1  UNL     1      48.395  -1.742 108.113  1.00  0.00    -0.302 N 
HETATM   11 CL1  UNL     1      50.584   3.718 108.101  1.00  0.00    -0.084 Cl
HETATM   12  O2  UNL     1      47.891  -3.678 107.068  1.00  0.00    -0.238 OA
HETATM   13  H9  UNL     1      48.211  -2.229 108.983  1.00  0.00     0.171 HD
ENDROOT
BRANCH   7  14
HETATM   14  C9  UNL     1      49.470  -0.222 104.490  1.00  0.00    -0.053 C 
HETATM   15  C10 UNL     1      50.184   0.022 103.555  1.00  0.00    -0.098 C 
BRANCH  15  16
HETATM   16  C11 UNL     1      51.039   0.322 102.445  1.00  0.00     0.065 A 
HETATM   17  C12 UNL     1      51.490   1.745 102.244  1.00  0.00     0.018 A 
HETATM   18  C13 UNL     1      52.469   0.711 102.723  1.00  0.00     0.018 A 
ENDBRANCH  15  16
ENDBRANCH   7  14
BRANCH   7  19
HETATM   19  C14 UNL     1      47.129  -0.098 105.335  1.00  0.00     0.435 C 
HETATM   20  F1  UNL     1      46.470   0.328 106.444  1.00  0.00    -0.166 F 
HETATM   21  F2  UNL     1      47.072   0.911 104.431  1.00  0.00    -0.166 F 
HETATM   22  F3  UNL     1      46.404  -1.123 104.820  1.00  0.00    -0.166 F 
ENDBRANCH   7  19
TORSDOF 3
ENDMDL
