MODEL 1
REMARK VINA RESULT:      -8.3      0.000      0.000
REMARK  1 active torsions:
REMARK  status: ('A' for Active; 'I' for Inactive)
REMARK    1  A    between atoms: C9_10  and  N3_12 
ROOT
HETATM    1  C1  UNL     1      50.250   1.495 110.430  1.00  0.00     0.002 A 
HETATM    2  C2  UNL     1      50.672   2.802 110.237  1.00  0.00     0.002 A 
HETATM    3  C3  UNL     1      50.604   3.364 108.961  1.00  0.00     0.032 A 
HETATM    4  C4  UNL     1      50.129   2.631 107.852  1.00  0.00     0.062 A 
HETATM    5  C5  UNL     1      49.675   1.311 108.054  1.00  0.00     0.086 A 
HETATM    6  C6  UNL     1      49.749   0.769 109.350  1.00  0.00     0.034 A 
HETATM    7  N1  UNL     1      50.143   3.283 106.594  1.00  0.00    -0.348 N 
HETATM    8  C7  UNL     1      50.424   2.618 105.450  1.00  0.00     0.089 A 
HETATM    9  C8  UNL     1      50.056   1.342 105.070  1.00  0.00     0.044 A 
HETATM   10  C9  UNL     1      49.156   0.485 105.836  1.00  0.00     0.139 C 
HETATM   11  N2  UNL     1      49.028   0.484 107.125  1.00  0.00    -0.228 NA
HETATM   12  S1  UNL     1      51.359   3.407 104.246  1.00  0.00    -0.076 SA
HETATM   13  C15 UNL     1      51.409   2.020 103.259  1.00  0.00    -0.018 A 
HETATM   14  C16 UNL     1      50.679   0.993 103.813  1.00  0.00     0.032 A 
HETATM   15  C17 UNL     1      52.168   2.037 101.980  1.00  0.00     0.056 C 
HETATM   16  H13 UNL     1      50.545   4.214 106.653  1.00  0.00     0.166 HD
ENDROOT
BRANCH  10  17
HETATM   17  N3  UNL     1      48.431  -0.401 105.042  1.00  0.00    -0.362 N 
HETATM   18  C10 UNL     1      47.294   0.103 104.237  1.00  0.00     0.154 C 
HETATM   19  C11 UNL     1      46.006  -0.723 104.456  1.00  0.00     0.291 C 
HETATM   20  N4  UNL     1      46.139  -2.173 104.212  1.00  0.00     0.087 N 
HETATM   21  C12 UNL     1      47.514  -2.642 104.499  1.00  0.00     0.291 C 
HETATM   22  C14 UNL     1      45.740  -2.540 102.857  1.00  0.00     0.310 C 
HETATM   23  C13 UNL     1      48.250  -1.780 105.544  1.00  0.00     0.154 C 
ENDBRANCH  10  17
TORSDOF 1
ENDMDL
