MODEL 1
REMARK VINA RESULT:      -6.5      0.000      0.000
REMARK  15 active torsions:
REMARK  status: ('A' for Active; 'I' for Inactive)
REMARK    1  A    between atoms: C5_5  and  C7_9 
REMARK       I    between atoms: C7_9  and  N1_10 
REMARK    2  A    between atoms: N1_10  and  C8_12 
REMARK    3  A    between atoms: C8_12  and  C9_13 
REMARK    4  A    between atoms: C8_12  and  C10_14 
REMARK    5  A    between atoms: C9_13  and  C11_15 
REMARK       I    between atoms: C10_14  and  N2_19 
REMARK    6  A    between atoms: C11_15  and  C12_16 
REMARK    7  A    between atoms: C12_16  and  O2_17 
REMARK    8  A    between atoms: N2_19  and  C13_21 
REMARK    9  A    between atoms: N2_19  and  C18_26 
REMARK   10  A    between atoms: C13_21  and  C14_22 
REMARK   11  A    between atoms: C14_22  and  C15_23 
REMARK   12  A    between atoms: C15_23  and  C16_24 
REMARK   13  A    between atoms: C18_26  and  C19_27 
REMARK   14  A    between atoms: C19_27  and  C20_28 
REMARK   15  A    between atoms: C20_28  and  O5_29 
ROOT
HETATM    1  C8  UNL     1      50.058   1.405 102.994  1.00  0.00     0.177 C 
ENDROOT
BRANCH   1   2
HETATM    2  N1  UNL     1      50.242   1.476 104.444  1.00  0.00    -0.344 N 
HETATM    3  C7  UNL     1      50.164   2.664 105.130  1.00  0.00     0.252 C 
HETATM    4  O1  UNL     1      50.058   3.752 104.573  1.00  0.00    -0.268 OA
HETATM    5  H4  UNL     1      50.094   0.594 104.930  1.00  0.00     0.163 HD
BRANCH   3   6
HETATM    6  C5  UNL     1      50.184   2.583 106.616  1.00  0.00     0.033 A 
HETATM    7  C4  UNL     1      50.683   3.681 107.331  1.00  0.00     0.019 A 
HETATM    8  C3  UNL     1      50.722   3.653 108.727  1.00  0.00     0.026 A 
HETATM    9  C2  UNL     1      50.272   2.525 109.418  1.00  0.00     0.055 A 
HETATM   10  C1  UNL     1      49.790   1.420 108.705  1.00  0.00     0.056 A 
HETATM   11 CL2  UNL     1      50.345   2.557 111.143  1.00  0.00    -0.083 Cl
HETATM   12  C6  UNL     1      49.747   1.448 107.306  1.00  0.00     0.042 A 
HETATM   13 CL1  UNL     1      49.233  -0.016 109.494  1.00  0.00    -0.083 Cl
ENDBRANCH   3   6
ENDBRANCH   1   2
BRANCH   1  14
HETATM   14  C9  UNL     1      51.320   0.867 102.310  1.00  0.00     0.045 C 
BRANCH  14  15
HETATM   15  C11 UNL     1      52.342   1.967 102.016  1.00  0.00     0.112 C 
BRANCH  15  16
HETATM   16  C12 UNL     1      52.192   2.493 100.615  1.00  0.00     0.139 C 
HETATM   17  O3  UNL     1      52.339   3.642 100.237  1.00  0.00    -0.650 OA
BRANCH  16  18
HETATM   18  O2  UNL     1      51.868   1.516  99.744  1.00  0.00    -0.776 OA
HETATM   19  H10 UNL     1      52.147   1.871  98.873  1.00  0.00     0.167 HD
ENDBRANCH  16  18
ENDBRANCH  15  16
ENDBRANCH  14  15
ENDBRANCH   1  14
BRANCH   1  20
HETATM   20  C10 UNL     1      48.874   0.442 102.745  1.00  0.00     0.242 C 
HETATM   21  N2  UNL     1      47.690   0.952 102.221  1.00  0.00    -0.350 N 
HETATM   22  O4  UNL     1      49.021  -0.766 102.980  1.00  0.00    -0.271 OA
BRANCH  21  23
HETATM   23  C13 UNL     1      46.598   0.014 101.942  1.00  0.00     0.126 C 
BRANCH  23  24
HETATM   24  C14 UNL     1      45.436   0.217 102.918  1.00  0.00     0.020 C 
BRANCH  24  25
HETATM   25  C15 UNL     1      45.541  -0.650 104.176  1.00  0.00     0.001 C 
BRANCH  25  26
HETATM   26  C16 UNL     1      46.187   0.018 105.391  1.00  0.00    -0.004 C 
HETATM   27  C17 UNL     1      47.197  -0.864 106.108  1.00  0.00     0.005 C 
ENDBRANCH  25  26
ENDBRANCH  24  25
ENDBRANCH  23  24
ENDBRANCH  21  23
BRANCH  21  28
HETATM   28  C18 UNL     1      47.405   2.377 102.024  1.00  0.00     0.128 C 
BRANCH  28  29
HETATM   29  C19 UNL     1      47.245   2.724 100.547  1.00  0.00     0.046 C 
BRANCH  29  30
HETATM   30  C20 UNL     1      48.594   2.974  99.885  1.00  0.00     0.168 C 
BRANCH  30  31
HETATM   31  O5  UNL     1      48.977   1.788  99.193  1.00  0.00    -0.396 OA
HETATM   32  C21 UNL     1      47.888   1.218  98.480  1.00  0.00     0.201 C 
ENDBRANCH  30  31
ENDBRANCH  29  30
ENDBRANCH  28  29
ENDBRANCH  21  28
ENDBRANCH   1  20
TORSDOF 15
ENDMDL
