MODEL 1
REMARK VINA RESULT:      -6.8      0.000      0.000
REMARK  8 active torsions:
REMARK  status: ('A' for Active; 'I' for Inactive)
REMARK    1  A    between atoms: C1_1  and  O1_7 
REMARK    2  A    between atoms: O1_7  and  C7_8 
REMARK    3  A    between atoms: C10_11  and  O2_14 
REMARK    4  A    between atoms: O2_14  and  C13_15 
REMARK    5  A    between atoms: C13_15  and  C14_16 
REMARK    6  A    between atoms: C14_16  and  N1_17 
REMARK       I    between atoms: N1_17  and  C15_18 
REMARK    7  A    between atoms: C15_18  and  O3_19 
REMARK    8  A    between atoms: O3_19  and  C16_21 
ROOT
HETATM    1  C7  UNL     1      49.209  -0.046 106.430  1.00  0.00     0.076 A 
HETATM    2  C8  UNL     1      49.866   0.084 105.207  1.00  0.00     0.040 A 
HETATM    3  C9  UNL     1      49.132   0.188 104.021  1.00  0.00     0.039 A 
HETATM    4  C10 UNL     1      47.737   0.148 104.055  1.00  0.00     0.069 A 
HETATM    5  C11 UNL     1      47.086  -0.006 105.284  1.00  0.00     0.039 A 
HETATM    6  C12 UNL     1      47.816  -0.111 106.470  1.00  0.00     0.040 A 
ENDROOT
BRANCH   4   7
HETATM    7  O2  UNL     1      46.902   0.237 102.977  1.00  0.00    -0.350 OA
BRANCH   7   8
HETATM    8  C13 UNL     1      46.191   1.468 102.803  1.00  0.00     0.195 C 
BRANCH   8   9
HETATM    9  C14 UNL     1      46.967   2.334 101.812  1.00  0.00     0.151 C 
BRANCH   9  10
HETATM   10  N1  UNL     1      47.694   3.394 102.480  1.00  0.00    -0.335 N 
HETATM   11  C15 UNL     1      49.049   3.496 102.405  1.00  0.00     0.360 C 
HETATM   12  O4  UNL     1      49.767   2.858 101.649  1.00  0.00    -0.239 OA
HETATM   13  H14 UNL     1      47.277   3.834 103.290  1.00  0.00     0.164 HD
BRANCH  11  14
HETATM   14  O3  UNL     1      49.476   4.408 103.312  1.00  0.00    -0.304 OA
BRANCH  14  15
HETATM   15  C16 UNL     1      50.142   3.838 104.444  1.00  0.00     0.176 C 
HETATM   16  C17 UNL     1      50.198   4.887 105.538  1.00  0.00     0.034 C 
ENDBRANCH  14  15
ENDBRANCH  11  14
ENDBRANCH   9  10
ENDBRANCH   8   9
ENDBRANCH   7   8
ENDBRANCH   4   7
BRANCH   1  17
HETATM   17  O1  UNL     1      49.997  -0.178 107.550  1.00  0.00    -0.311 OA
BRANCH  17  18
HETATM   18  C1  UNL     1      50.010   0.869 108.442  1.00  0.00     0.076 A 
HETATM   19  C2  UNL     1      49.641   0.588 109.758  1.00  0.00     0.037 A 
HETATM   20  C3  UNL     1      49.665   1.599 110.718  1.00  0.00     0.003 A 
HETATM   21  C4  UNL     1      50.073   2.886 110.364  1.00  0.00     0.000 A 
HETATM   22  C5  UNL     1      50.464   3.162 109.053  1.00  0.00     0.003 A 
HETATM   23  C6  UNL     1      50.441   2.151 108.092  1.00  0.00     0.037 A 
ENDBRANCH  17  18
ENDBRANCH   1  17
TORSDOF 8
ENDMDL
