MODEL 1
REMARK VINA RESULT:      -7.7      0.000      0.000
REMARK  7 active torsions:
REMARK  status: ('A' for Active; 'I' for Inactive)
REMARK    1  A    between atoms: C1_1  and  C4_5 
REMARK    2  A    between atoms: C2_2  and  N1_7 
REMARK    3  A    between atoms: C4_5  and  C6_8 
REMARK       I    between atoms: C5_6  and  N1_7 
REMARK    4  A    between atoms: C5_6  and  C12_14 
REMARK    5  A    between atoms: C9_11  and  N2_24 
REMARK    6  A    between atoms: C13_17  and  O4_22 
REMARK    7  A    between atoms: C14_18  and  O5_23 
ROOT
HETATM    1  C1  UNL     1      47.871  -0.087 103.609  1.00  0.00     0.168 A 
HETATM    2  C2  UNL     1      49.195   0.569 104.045  1.00  0.00     0.214 A 
HETATM    3  C3  UNL     1      48.895   1.510 102.854  1.00  0.00     0.284 A 
HETATM    4  O1  UNL     1      47.763   0.856 102.493  1.00  0.00    -0.311 OA
HETATM    5  O3  UNL     1      49.380   2.493 102.352  1.00  0.00    -0.263 OA
ENDROOT
BRANCH   2   6
HETATM    6  N1  UNL     1      49.245   1.210 105.374  1.00  0.00    -0.341 N 
HETATM    7  C5  UNL     1      49.733   0.552 106.479  1.00  0.00     0.255 C 
HETATM    8  O2  UNL     1      49.995  -0.648 106.450  1.00  0.00    -0.268 OA
HETATM    9  H5  UNL     1      49.141   2.223 105.460  1.00  0.00     0.163 HD
BRANCH   7  10
HETATM   10  C12 UNL     1      49.988   1.366 107.711  1.00  0.00     0.068 A 
HETATM   11  C13 UNL     1      49.685   0.944 109.008  1.00  0.00     0.114 A 
HETATM   12  C14 UNL     1      49.878   1.805 110.099  1.00  0.00     0.099 A 
HETATM   13  C15 UNL     1      50.401   3.085 109.933  1.00  0.00     0.039 A 
HETATM   14  C16 UNL     1      50.725   3.511 108.649  1.00  0.00     0.004 A 
HETATM   15  C17 UNL     1      50.517   2.661 107.546  1.00  0.00     0.020 A 
BRANCH  11  16
HETATM   16  O4  UNL     1      49.166  -0.305 109.263  1.00  0.00    -0.357 OA
HETATM   17  H13 UNL     1      49.198  -0.765 108.387  1.00  0.00     0.217 HD
ENDBRANCH  11  16
BRANCH  12  18
HETATM   18  O5  UNL     1      49.518   1.353 111.340  1.00  0.00    -0.358 OA
HETATM   19  H14 UNL     1      48.541   1.266 111.331  1.00  0.00     0.217 HD
ENDBRANCH  12  18
ENDBRANCH   7  10
ENDBRANCH   2   6
BRANCH   1  20
HETATM   20  C4  UNL     1      46.651  -0.010 104.520  1.00  0.00     0.073 C 
BRANCH  20  21
HETATM   21  C6  UNL     1      46.606  -1.227 105.415  1.00  0.00    -0.056 A 
HETATM   22  C7  UNL     1      46.606  -2.519 104.862  1.00  0.00     0.009 A 
HETATM   23  C8  UNL     1      46.638  -3.646 105.690  1.00  0.00     0.036 A 
HETATM   24  C9  UNL     1      46.670  -3.482 107.081  1.00  0.00     0.102 A 
HETATM   25  C10 UNL     1      46.641  -2.199 107.646  1.00  0.00     0.036 A 
HETATM   26  C11 UNL     1      46.606  -1.078 106.813  1.00  0.00     0.009 A 
BRANCH  24  27
HETATM   27  N2  UNL     1      46.769  -4.659 107.951  1.00  0.00    -0.116 N 
HETATM   28  O6  UNL     1      45.819  -5.463 107.938  1.00  0.00    -0.532 OA
HETATM   29  O7  UNL     1      47.783  -4.770 108.668  1.00  0.00    -0.532 OA
ENDBRANCH  24  27
ENDBRANCH  20  21
ENDBRANCH   1  20
TORSDOF 7
ENDMDL
