MODEL 1
REMARK VINA RESULT:      -8.4      0.000      0.000
REMARK  1 active torsions:
REMARK  status: ('A' for Active; 'I' for Inactive)
REMARK    1  A    between atoms: C17_17  and  O2_22 
ROOT
HETATM    1  C1  UNL     1      47.666  -0.016 102.504  1.00  0.00     0.052 A 
HETATM    2  C2  UNL     1      47.588   1.278 101.800  1.00  0.00     0.172 A 
HETATM    3  C3  UNL     1      48.436   2.377 102.301  1.00  0.00     0.063 A 
HETATM    4  C4  UNL     1      49.287   2.199 103.327  1.00  0.00    -0.036 A 
HETATM    5  C5  UNL     1      49.471   0.861 104.064  1.00  0.00     0.006 A 
HETATM    6  C6  UNL     1      48.511  -0.196 103.526  1.00  0.00    -0.008 A 
HETATM    7  C7  UNL     1      50.039   3.328 103.860  1.00  0.00    -0.060 C 
HETATM    8  C8  UNL     1      49.844   3.568 105.335  1.00  0.00     0.043 C 
HETATM    9  C9  UNL     1      50.086   2.288 106.152  1.00  0.00     0.000 C 
HETATM   10  C10 UNL     1      49.218   1.103 105.602  1.00  0.00     0.007 C 
HETATM   11  C11 UNL     1      49.753   2.495 107.632  1.00  0.00     0.001 C 
HETATM   12  C12 UNL     1      50.050   1.247 108.487  1.00  0.00    -0.014 C 
HETATM   13  C13 UNL     1      49.153   0.106 107.991  1.00  0.00     0.012 C 
HETATM   14  C14 UNL     1      49.360  -0.167 106.489  1.00  0.00     0.007 C 
HETATM   15  C15 UNL     1      50.438   3.622 108.400  1.00  0.00     0.008 C 
HETATM   16  C16 UNL     1      50.265   3.226 109.877  1.00  0.00     0.033 C 
HETATM   17  C17 UNL     1      49.680   1.801 109.876  1.00  0.00     0.126 C 
HETATM   18  C18 UNL     1      50.853   4.081 103.103  1.00  0.00     0.019 C 
HETATM   19  O1  UNL     1      46.836   1.436 100.845  1.00  0.00    -0.289 OA
HETATM   20  C19 UNL     1      51.530   0.786 108.468  1.00  0.00     0.018 C 
HETATM   21  C20 UNL     1      50.895   0.329 103.776  1.00  0.00     0.025 C 
ENDROOT
BRANCH  17  22
HETATM   22  O2  UNL     1      50.196   1.020 110.935  1.00  0.00    -0.395 OA
HETATM   23  H26 UNL     1      50.902   0.460 110.569  1.00  0.00     0.210 HD
ENDBRANCH  17  22
TORSDOF 1
ENDMDL
