MODEL 1
REMARK VINA RESULT:      -8.9      0.000      0.000
REMARK  8 active torsions:
REMARK  status: ('A' for Active; 'I' for Inactive)
REMARK    1  A    between atoms: C3_3  and  C25_32 
REMARK    2  A    between atoms: N1_7  and  C10_13 
REMARK    3  A    between atoms: C7_8  and  O1_10 
REMARK    4  A    between atoms: O1_10  and  C8_11 
REMARK    5  A    between atoms: C10_13  and  C11_14 
REMARK    6  A    between atoms: C14_17  and  C17_20 
REMARK    7  A    between atoms: C18_21  and  C23_26 
REMARK    8  A    between atoms: C25_32  and  O4_33 
ROOT
HETATM    1  C11 UNL     1      48.442  -0.688 104.619  1.00  0.00    -0.040 A 
HETATM    2  C12 UNL     1      47.548   0.148 105.302  1.00  0.00     0.010 A 
HETATM    3  C13 UNL     1      47.937   0.815 106.468  1.00  0.00     0.013 A 
HETATM    4  C14 UNL     1      49.234   0.677 106.976  1.00  0.00    -0.025 A 
HETATM    5  C15 UNL     1      50.130  -0.162 106.298  1.00  0.00     0.013 A 
HETATM    6  C16 UNL     1      49.741  -0.830 105.132  1.00  0.00     0.010 A 
ENDROOT
BRANCH   1   7
HETATM    7  C10 UNL     1      48.098  -1.371 103.314  1.00  0.00     0.171 C 
BRANCH   7   8
HETATM    8  N1  UNL     1      48.085  -0.490 102.155  1.00  0.00    -0.304 N 
HETATM    9  C4  UNL     1      47.023   0.200 101.603  1.00  0.00     0.084 A 
HETATM   10  C3  UNL     1      45.626   0.243 101.796  1.00  0.00     0.067 A 
HETATM   11  C5  UNL     1      47.638   1.044 100.671  1.00  0.00     0.089 A 
HETATM   12  C2  UNL     1      44.885   1.192 101.067  1.00  0.00     0.021 A 
HETATM   13  C1  UNL     1      45.497   2.040 100.148  1.00  0.00     0.003 A 
HETATM   14  C6  UNL     1      46.874   1.964  99.933  1.00  0.00     0.034 A 
HETATM   15  N2  UNL     1      48.991   0.840 100.617  1.00  0.00    -0.206 NA
HETATM   16  C7  UNL     1      49.233  -0.078 101.518  1.00  0.00     0.249 A 
BRANCH  10  17
HETATM   17  C25 UNL     1      44.868  -0.651 102.679  1.00  0.00     0.178 C 
HETATM   18  O5  UNL     1      44.626  -1.824 102.475  1.00  0.00    -0.646 OA
BRANCH  17  19
HETATM   19  O4  UNL     1      44.541  -0.035 103.824  1.00  0.00    -0.773 OA
HETATM   20  H20 UNL     1      44.472  -0.744 104.500  1.00  0.00     0.167 HD
ENDBRANCH  17  19
ENDBRANCH  10  17
BRANCH  16  21
HETATM   21  O1  UNL     1      50.432  -0.561 101.839  1.00  0.00    -0.321 OA
BRANCH  21  22
HETATM   22  C8  UNL     1      51.534   0.312 101.599  1.00  0.00     0.174 C 
HETATM   23  C9  UNL     1      52.152   0.774 102.908  1.00  0.00     0.034 C 
ENDBRANCH  21  22
ENDBRANCH  16  21
ENDBRANCH   7   8
ENDBRANCH   1   7
BRANCH   4  24
HETATM   24  C17 UNL     1      49.645   1.397 108.188  1.00  0.00    -0.012 A 
HETATM   25  C18 UNL     1      50.248   2.670 108.166  1.00  0.00     0.023 A 
HETATM   26  C19 UNL     1      50.653   3.290 109.359  1.00  0.00     0.016 A 
HETATM   27  C20 UNL     1      50.461   2.650 110.584  1.00  0.00     0.001 A 
HETATM   28  C21 UNL     1      49.864   1.393 110.623  1.00  0.00     0.001 A 
HETATM   29  C22 UNL     1      49.460   0.775 109.438  1.00  0.00     0.013 A 
BRANCH  25  30
HETATM   30  C23 UNL     1      50.458   3.402 106.907  1.00  0.00     0.171 A 
HETATM   31  N3  UNL     1      50.771   2.893 105.763  1.00  0.00    -0.104 NA
HETATM   32  O2  UNL     1      50.869   4.010 104.874  1.00  0.00    -0.153 OA
HETATM   33  C24 UNL     1      50.600   5.125 105.628  1.00  0.00     0.390 A 
HETATM   34  N4  UNL     1      50.322   4.736 106.881  1.00  0.00    -0.283 N 
HETATM   35  O3  UNL     1      50.618   6.277 105.228  1.00  0.00    -0.236 OA
HETATM   36  H19 UNL     1      50.136   5.374 107.633  1.00  0.00     0.172 HD
ENDBRANCH  25  30
ENDBRANCH   4  24
TORSDOF 8
ENDMDL
