MODEL 1
REMARK VINA RESULT:      -8.0      0.000      0.000
REMARK  2 active torsions:
REMARK  status: ('A' for Active; 'I' for Inactive)
REMARK    1  A    between atoms: C2_2  and  O1_7 
REMARK    2  A    between atoms: C9_11  and  O3_20 
ROOT
HETATM    1  C1  UNL     1      46.993  -0.528 105.868  1.00  0.00     0.002 C 
HETATM    2  C2  UNL     1      47.689  -1.847 105.995  1.00  0.00     0.143 C 
HETATM    3  C3  UNL     1      48.649  -1.694 107.125  1.00  0.00     0.069 C 
HETATM    4  C4  UNL     1      49.657  -0.619 106.854  1.00  0.00     0.148 A 
HETATM    5  C5  UNL     1      49.222   0.409 105.916  1.00  0.00     0.036 A 
HETATM    6  C6  UNL     1      47.755   0.546 105.832  1.00  0.00    -0.011 A 
HETATM    7  O2  UNL     1      49.740   0.116 108.088  1.00  0.00    -0.341 OA
HETATM    8  C7  UNL     1      50.093   1.427 107.750  1.00  0.00     0.110 A 
HETATM    9  C8  UNL     1      49.830   1.723 106.437  1.00  0.00     0.001 A 
HETATM   10  C9  UNL     1      50.659   2.356 108.639  1.00  0.00     0.102 A 
HETATM   11  C10 UNL     1      50.941   3.597 108.116  1.00  0.00     0.040 A 
HETATM   12  C11 UNL     1      50.668   3.873 106.788  1.00  0.00     0.012 A 
HETATM   13  C12 UNL     1      50.109   2.947 105.926  1.00  0.00    -0.020 A 
HETATM   14  C13 UNL     1      50.022   3.682 104.594  1.00  0.00     0.311 C 
HETATM   15  N1  UNL     1      50.287   2.696 103.472  1.00  0.00     0.088 NA
HETATM   16  C14 UNL     1      49.997   1.513 104.011  1.00  0.00     0.273 C 
HETATM   17  C15 UNL     1      49.744   0.200 104.445  1.00  0.00     0.051 A 
HETATM   18  C16 UNL     1      49.632   3.139 102.282  1.00  0.00     0.310 C 
HETATM   19 BR1  UNL     1      49.304   0.702 106.579  1.00  0.00    -0.113 Br
HETATM   20  H22 UNL     1      49.771   1.990 105.906  1.00  0.00     0.113 HD
ENDROOT
BRANCH   2  21
HETATM   21  O1  UNL     1      46.711  -2.815 106.323  1.00  0.00    -0.392 OA
HETATM   22  H10 UNL     1      46.820  -3.623 105.765  1.00  0.00     0.210 HD
ENDBRANCH   2  21
BRANCH  10  23
HETATM   23  O3  UNL     1      50.919   2.042 109.963  1.00  0.00    -0.353 OA
HETATM   24  C17 UNL     1      50.205   2.651 110.992  1.00  0.00     0.210 C 
ENDBRANCH  10  23
TORSDOF 2
ENDMDL
