MODEL 1
REMARK VINA RESULT:      -7.6      0.000      0.000
REMARK  9 active torsions:
REMARK  status: ('A' for Active; 'I' for Inactive)
REMARK    1  A    between atoms: C1_1  and  C2_2 
REMARK       I    between atoms: C1_1  and  N1_4 
REMARK    2  A    between atoms: N1_4  and  C11_15 
REMARK    3  A    between atoms: N3_6  and  C9_13 
REMARK    4  A    between atoms: C9_13  and  C10_14 
REMARK    5  A    between atoms: C10_14  and  C16_22 
REMARK    6  A    between atoms: C11_15  and  C12_16 
REMARK    7  A    between atoms: C11_15  and  C13_17 
REMARK    8  A    between atoms: C13_17  and  O2_18 
REMARK    9  A    between atoms: C16_22  and  C17_23 
ROOT
HETATM    1  C17 UNL     1      48.515  -3.806 106.776  1.00  0.00     0.124 C 
HETATM    2  C20 UNL     1      48.645  -5.205 107.202  1.00  0.00     0.059 C 
HETATM    3  N4  UNL     1      48.731  -6.312 107.542  1.00  0.00    -0.197 NA
ENDROOT
BRANCH   1   4
HETATM    4  C16 UNL     1      47.222  -3.170 107.293  1.00  0.00     0.016 C 
BRANCH   4   5
HETATM    5  C10 UNL     1      47.311  -1.644 107.395  1.00  0.00     0.023 C 
BRANCH   5   6
HETATM    6  C9  UNL     1      48.422  -1.218 108.354  1.00  0.00     0.151 C 
BRANCH   6   7
HETATM    7  N3  UNL     1      49.042   0.030 107.945  1.00  0.00    -0.268 N 
HETATM    8  N2  UNL     1      49.107   0.321 106.629  1.00  0.00    -0.166 NA
HETATM    9  C2  UNL     1      49.739   1.515 106.593  1.00  0.00     0.157 A 
HETATM   10  C4  UNL     1      50.063   1.972 107.903  1.00  0.00     0.028 A 
HETATM   11  C3  UNL     1      49.595   0.981 108.762  1.00  0.00     0.065 A 
HETATM   12  C8  UNL     1      50.698   3.105 108.448  1.00  0.00     0.016 A 
HETATM   13  C5  UNL     1      49.739   1.064 110.156  1.00  0.00     0.032 A 
HETATM   14  C6  UNL     1      50.374   2.197 110.674  1.00  0.00     0.002 A 
HETATM   15  C7  UNL     1      50.846   3.204 109.835  1.00  0.00     0.001 A 
BRANCH   9  16
HETATM   16  C1  UNL     1      50.012   2.192 105.316  1.00  0.00     0.273 C 
HETATM   17  O1  UNL     1      50.204   3.400 105.213  1.00  0.00    -0.266 OA
HETATM   18  N1  UNL     1      50.028   1.328 104.243  1.00  0.00    -0.341 N 
HETATM   19  H1  UNL     1      49.828   0.359 104.476  1.00  0.00     0.163 HD
BRANCH  18  20
HETATM   20  C11 UNL     1      50.146   1.745 102.847  1.00  0.00     0.192 C 
BRANCH  20  21
HETATM   21  C12 UNL     1      51.302   1.034 102.063  1.00  0.00    -0.022 C 
HETATM   22  C14 UNL     1      50.739  -0.109 101.187  1.00  0.00     0.017 C 
HETATM   23  C15 UNL     1      51.951   2.052 101.090  1.00  0.00     0.017 C 
HETATM   24  C18 UNL     1      52.422   0.473 102.954  1.00  0.00     0.017 C 
ENDBRANCH  20  21
BRANCH  20  25
HETATM   25  C13 UNL     1      48.727   1.864 102.236  1.00  0.00     0.282 C 
HETATM   26  O3  UNL     1      48.450   2.668 101.349  1.00  0.00    -0.263 OA
BRANCH  25  27
HETATM   27  O2  UNL     1      47.839   0.985 102.765  1.00  0.00    -0.325 OA
HETATM   28  C19 UNL     1      46.507   1.489 102.868  1.00  0.00     0.213 C 
ENDBRANCH  25  27
ENDBRANCH  20  25
ENDBRANCH  18  20
ENDBRANCH   9  16
ENDBRANCH   6   7
ENDBRANCH   5   6
ENDBRANCH   4   5
ENDBRANCH   1   4
TORSDOF 9
ENDMDL
