MODEL 1
REMARK VINA RESULT:      -8.3      0.000      0.000
REMARK  4 active torsions:
REMARK  status: ('A' for Active; 'I' for Inactive)
REMARK    1  A    between atoms: C4_4  and  C7_10 
REMARK    2  A    between atoms: C7_10  and  N1_11 
REMARK       I    between atoms: N1_11  and  C8_12 
REMARK    3  A    between atoms: C8_12  and  C9_14 
REMARK    4  A    between atoms: C12_18  and  O3_21 
ROOT
HETATM    1  C9  UNL     1      49.693   2.971 102.802  1.00  0.00     0.100 A 
HETATM    2  C10 UNL     1      49.709   2.012 103.748  1.00  0.00     0.113 A 
HETATM    3  N2  UNL     1      50.063   2.217 105.076  1.00  0.00    -0.345 N 
HETATM    4  C11 UNL     1      50.429   3.512 105.487  1.00  0.00     0.141 A 
HETATM    5  C12 UNL     1      50.441   4.582 104.648  1.00  0.00     0.150 A 
HETATM    6  C13 UNL     1      50.095   4.341 103.204  1.00  0.00     0.224 A 
HETATM    7  O2  UNL     1      50.147   5.251 102.372  1.00  0.00    -0.284 OA
HETATM    8  C14 UNL     1      50.147   1.083 106.019  1.00  0.00     0.182 C 
HETATM    9  C15 UNL     1      49.883   1.556 107.453  1.00  0.00     0.245 C 
HETATM   10  N3  UNL     1      50.744   2.677 107.807  1.00  0.00    -0.313 N 
HETATM   11  C16 UNL     1      50.794   3.765 106.943  1.00  0.00     0.276 C 
HETATM   12  O4  UNL     1      51.098   4.903 107.321  1.00  0.00    -0.266 OA
HETATM   13  O5  UNL     1      50.053   0.450 108.350  1.00  0.00    -0.359 OA
HETATM   14  C17 UNL     1      50.261   0.779 109.727  1.00  0.00     0.126 C 
HETATM   15  C18 UNL     1      51.516   1.628 109.839  1.00  0.00     0.057 C 
HETATM   16  C19 UNL     1      50.970   2.911 109.234  1.00  0.00     0.092 C 
HETATM   17  C20 UNL     1      49.635   3.114 109.976  1.00  0.00     0.028 C 
HETATM   18  C21 UNL     1      49.151   1.681 110.281  1.00  0.00     0.034 C 
ENDROOT
BRANCH   1  19
HETATM   19  C8  UNL     1      49.334   2.585 101.415  1.00  0.00     0.257 C 
HETATM   20  N1  UNL     1      48.324   3.337 100.863  1.00  0.00    -0.352 N 
HETATM   21  H5  UNL     1      47.903   4.082 101.418  1.00  0.00     0.163 HD
HETATM   22  O1  UNL     1      49.959   1.711 100.817  1.00  0.00    -0.267 OA
BRANCH  20  23
HETATM   23  C7  UNL     1      47.907   3.216  99.482  1.00  0.00     0.167 C 
BRANCH  23  24
HETATM   24  C4  UNL     1      46.699   2.338  99.332  1.00  0.00     0.037 A 
HETATM   25  C3  UNL     1      46.832   1.011  98.911  1.00  0.00     0.130 A 
HETATM   26  C2  UNL     1      45.722   0.198  98.699  1.00  0.00     0.085 A 
HETATM   27  F2  UNL     1      48.056   0.488  98.722  1.00  0.00    -0.205 F 
HETATM   28  C1  UNL     1      44.452   0.728  98.906  1.00  0.00     0.122 A 
HETATM   29  C6  UNL     1      44.281   2.034  99.349  1.00  0.00     0.085 A 
HETATM   30  F1  UNL     1      43.372  -0.032  98.691  1.00  0.00    -0.206 F 
HETATM   31  C5  UNL     1      45.405   2.827  99.563  1.00  0.00     0.130 A 
HETATM   32  F3  UNL     1      45.238   4.074 100.024  1.00  0.00    -0.205 F 
ENDBRANCH  23  24
ENDBRANCH  20  23
ENDBRANCH   1  19
BRANCH   5  33
HETATM   33  O3  UNL     1      50.774   5.881 104.999  1.00  0.00    -0.355 OA
HETATM   34  H7  UNL     1      49.980   6.316 105.387  1.00  0.00     0.218 HD
ENDBRANCH   5  33
TORSDOF 4
ENDMDL
