MODEL 1
REMARK VINA RESULT:      -9.5      0.000      0.000
REMARK  0 active torsions:
REMARK  status: ('A' for Active; 'I' for Inactive)
ROOT
HETATM    1  C1  UNL     1      48.128  -0.127 102.337  1.00  0.00     0.037 A 
HETATM    2  C2  UNL     1      49.313  -0.339 103.037  1.00  0.00     0.069 A 
HETATM    3  C3  UNL     1      49.258  -0.760 104.371  1.00  0.00     0.050 A 
HETATM    4  C4  UNL     1      48.030  -0.938 105.027  1.00  0.00    -0.006 A 
HETATM    5  C5  UNL     1      46.850  -0.704 104.310  1.00  0.00     0.014 A 
HETATM    6  C6  UNL     1      46.899  -0.310 102.972  1.00  0.00     0.004 A 
HETATM    7  O1  UNL     1      50.577  -0.184 102.542  1.00  0.00    -0.351 OA
HETATM    8  C7  UNL     1      50.764   0.645 101.390  1.00  0.00     0.179 C 
HETATM    9  C8  UNL     1      50.686   2.139 101.731  1.00  0.00     0.053 C 
HETATM   10  C9  UNL     1      51.887   2.600 102.513  1.00  0.00    -0.027 C 
HETATM   11  C10 UNL     1      51.933   3.000 103.794  1.00  0.00    -0.001 C 
HETATM   12  C11 UNL     1      50.804   3.096 104.785  1.00  0.00     0.299 C 
HETATM   13  N1  UNL     1      50.936   4.313 105.608  1.00  0.00     0.091 N 
HETATM   14  C12 UNL     1      50.554   5.504 104.843  1.00  0.00     0.310 C 
HETATM   15  C13 UNL     1      50.125   4.236 106.839  1.00  0.00     0.311 C 
HETATM   16  C14 UNL     1      50.599   3.166 107.802  1.00  0.00    -0.028 A 
HETATM   17  C15 UNL     1      51.945   3.090 108.189  1.00  0.00     0.009 A 
HETATM   18  C16 UNL     1      52.385   2.067 109.027  1.00  0.00     0.003 A 
HETATM   19  C17 UNL     1      51.486   1.100 109.475  1.00  0.00     0.032 A 
HETATM   20  C18 UNL     1      50.141   1.154 109.105  1.00  0.00     0.076 A 
HETATM   21  C19 UNL     1      49.697   2.220 108.311  1.00  0.00     0.041 A 
HETATM   22  N2  UNL     1      49.275   0.144 109.545  1.00  0.00    -0.063 NA
HETATM   23  C20 UNL     1      48.688  -0.631 108.685  1.00  0.00     0.727 C 
HETATM   24  N3  UNL     1      47.875  -1.589 109.249  1.00  0.00    -0.075 NA
HETATM   25  C21 UNL     1      47.178  -2.311 108.433  1.00  0.00     0.138 C 
HETATM   26  C22 UNL     1      47.141  -2.193 106.957  1.00  0.00     0.051 C 
HETATM   27  C23 UNL     1      47.985  -1.273 106.464  1.00  0.00     0.061 C 
HETATM   28  N4  UNL     1      48.799  -0.569 107.317  1.00  0.00    -0.187 N 
HETATM   29  H24 UNL     1      49.390   0.147 106.921  1.00  0.00     0.184 HD
ENDROOT
TORSDOF 0
ENDMDL
