MODEL 1
REMARK VINA RESULT:      -5.7      0.000      0.000
REMARK  27 active torsions:
REMARK  status: ('A' for Active; 'I' for Inactive)
REMARK    1  A    between atoms: O1_1  and  C1_2 
REMARK    2  A    between atoms: O1_1  and  C4_7 
REMARK    3  A    between atoms: C1_2  and  C2_3 
REMARK    4  A    between atoms: C2_3  and  C3_4 
REMARK    5  A    between atoms: C2_3  and  O3_6 
REMARK    6  A    between atoms: C3_4  and  O2_5 
REMARK    7  A    between atoms: O2_5  and  C16_20 
REMARK    8  A    between atoms: C4_7  and  C5_8 
REMARK    9  A    between atoms: C5_8  and  C6_10 
REMARK   10  A    between atoms: C6_10  and  C7_11 
REMARK   11  A    between atoms: C7_11  and  C8_12 
REMARK   12  A    between atoms: C8_12  and  C9_13 
REMARK   13  A    between atoms: C9_13  and  C10_14 
REMARK   14  A    between atoms: C10_14  and  C11_15 
REMARK   15  A    between atoms: C11_15  and  C12_16 
REMARK   16  A    between atoms: C12_16  and  C13_17 
REMARK   17  A    between atoms: C13_17  and  C14_18 
REMARK   18  A    between atoms: C16_20  and  C17_21 
REMARK   19  A    between atoms: C17_21  and  C18_23 
REMARK   20  A    between atoms: C18_23  and  C19_24 
REMARK   21  A    between atoms: C19_24  and  C20_25 
REMARK   22  A    between atoms: C20_25  and  C21_26 
REMARK   23  A    between atoms: C21_26  and  C22_27 
REMARK   24  A    between atoms: C22_27  and  C23_28 
REMARK   25  A    between atoms: C23_28  and  C24_29 
REMARK   26  A    between atoms: C24_29  and  C25_30 
REMARK   27  A    between atoms: C25_30  and  C26_31 
ROOT
HETATM    1  C2  UNL     1      52.187   3.270 109.138  1.00  0.00     0.166 C 
ENDROOT
BRANCH   1   2
HETATM    2  C1  UNL     1      51.711   3.357 107.685  1.00  0.00     0.212 C 
BRANCH   2   3
HETATM    3  O1  UNL     1      50.675   4.339 107.527  1.00  0.00    -0.319 OA
BRANCH   3   4
HETATM    4  C4  UNL     1      50.555   4.895 106.292  1.00  0.00     0.258 C 
HETATM    5  O4  UNL     1      50.258   6.062 106.071  1.00  0.00    -0.265 OA
BRANCH   4   6
HETATM    6  C5  UNL     1      50.888   3.894 105.214  1.00  0.00     0.111 C 
BRANCH   6   7
HETATM    7  C6  UNL     1      49.655   3.249 104.586  1.00  0.00     0.010 C 
BRANCH   7   8
HETATM    8  C7  UNL     1      49.160   4.010 103.350  1.00  0.00     0.000 C 
BRANCH   8   9
HETATM    9  C8  UNL     1      50.263   4.815 102.660  1.00  0.00     0.000 C 
BRANCH   9  10
HETATM   10  C9  UNL     1      50.455   4.530 101.165  1.00  0.00     0.000 C 
BRANCH  10  11
HETATM   11  C10 UNL     1      50.535   3.050 100.779  1.00  0.00     0.000 C 
BRANCH  11  12
HETATM   12  C11 UNL     1      51.947   2.473 100.921  1.00  0.00     0.000 C 
BRANCH  12  13
HETATM   13  C12 UNL     1      52.245   1.926 102.321  1.00  0.00     0.000 C 
BRANCH  13  14
HETATM   14  C13 UNL     1      51.761   0.488 102.530  1.00  0.00    -0.000 C 
BRANCH  14  15
HETATM   15  C14 UNL     1      51.291  -0.185 101.239  1.00  0.00    -0.005 C 
HETATM   16  C15 UNL     1      49.831  -0.610 101.268  1.00  0.00     0.005 C 
ENDBRANCH  14  15
ENDBRANCH  13  14
ENDBRANCH  12  13
ENDBRANCH  11  12
ENDBRANCH  10  11
ENDBRANCH   9  10
ENDBRANCH   8   9
ENDBRANCH   7   8
ENDBRANCH   6   7
ENDBRANCH   4   6
ENDBRANCH   3   4
ENDBRANCH   2   3
ENDBRANCH   1   2
BRANCH   1  17
HETATM   17  C3  UNL     1      51.114   2.686 110.066  1.00  0.00     0.212 C 
BRANCH  17  18
HETATM   18  O2  UNL     1      50.954   1.286 109.761  1.00  0.00    -0.319 OA
BRANCH  18  19
HETATM   19  C16 UNL     1      49.692   0.786 109.842  1.00  0.00     0.258 C 
HETATM   20  O5  UNL     1      48.906   0.952 110.764  1.00  0.00    -0.265 OA
BRANCH  19  21
HETATM   21  C17 UNL     1      49.378  -0.036 108.617  1.00  0.00     0.111 C 
BRANCH  21  22
HETATM   22  C18 UNL     1      49.039   0.820 107.400  1.00  0.00     0.010 C 
BRANCH  22  23
HETATM   23  C19 UNL     1      48.556   0.039 106.173  1.00  0.00     0.000 C 
BRANCH  23  24
HETATM   24  C20 UNL     1      47.031  -0.078 106.083  1.00  0.00     0.000 C 
BRANCH  24  25
HETATM   25  C21 UNL     1      46.614  -0.895 104.859  1.00  0.00     0.000 C 
BRANCH  25  26
HETATM   26  C22 UNL     1      47.779  -1.631 104.187  1.00  0.00     0.000 C 
BRANCH  26  27
HETATM   27  C23 UNL     1      47.913  -3.122 104.517  1.00  0.00     0.000 C 
BRANCH  27  28
HETATM   28  C24 UNL     1      46.647  -3.727 105.127  1.00  0.00     0.000 C 
BRANCH  28  29
HETATM   29  C25 UNL     1      46.847  -4.243 106.556  1.00  0.00    -0.000 C 
BRANCH  29  30
HETATM   30  C26 UNL     1      47.921  -3.481 107.334  1.00  0.00    -0.005 C 
HETATM   31  C27 UNL     1      47.394  -2.992 108.675  1.00  0.00     0.005 C 
ENDBRANCH  29  30
ENDBRANCH  28  29
ENDBRANCH  27  28
ENDBRANCH  26  27
ENDBRANCH  25  26
ENDBRANCH  24  25
ENDBRANCH  23  24
ENDBRANCH  22  23
ENDBRANCH  21  22
ENDBRANCH  19  21
ENDBRANCH  18  19
ENDBRANCH  17  18
ENDBRANCH   1  17
BRANCH   1  32
HETATM   32  O3  UNL     1      53.361   2.448 109.205  1.00  0.00    -0.391 OA
HETATM   33  H6  UNL     1      53.073   1.520 109.258  1.00  0.00     0.210 HD
ENDBRANCH   1  32
TORSDOF 27
ENDMDL
