MODEL 1
REMARK VINA RESULT:      -7.3      0.000      0.000
REMARK  4 active torsions:
REMARK  status: ('A' for Active; 'I' for Inactive)
REMARK    1  A    between atoms: C3_3  and  N1_9 
REMARK    2  A    between atoms: C6_6  and  O1_7 
REMARK    3  A    between atoms: C11_16  and  C12_17 
REMARK    4  A    between atoms: C13_19  and  N2_22 
ROOT
HETATM    1  N1  UNL     1      49.348   1.161 104.993  1.00  0.00    -0.262 N 
HETATM    2  C8  UNL     1      48.324   0.230 104.871  1.00  0.00     0.153 A 
HETATM    3  S1  UNL     1      48.207  -0.318 103.201  1.00  0.00    -0.054 SA
HETATM    4  C9  UNL     1      49.373   0.821 102.635  1.00  0.00     0.077 A 
HETATM    5  C10 UNL     1      49.970   1.542 103.800  1.00  0.00     0.271 A 
HETATM    6  S2  UNL     1      47.207  -0.314 105.994  1.00  0.00    -0.052 SA
HETATM    7  O2  UNL     1      50.909   2.319 103.679  1.00  0.00    -0.266 OA
HETATM    8  C11 UNL     1      49.648   0.932 101.326  1.00  0.00     0.043 C 
ENDROOT
BRANCH   8   9
HETATM    9  C12 UNL     1      50.572   1.844 100.746  1.00  0.00     0.008 A 
HETATM   10  S3  UNL     1      50.008   3.407 100.275  1.00  0.00    -0.066 SA
HETATM   11  C13 UNL     1      51.545   3.879  99.733  1.00  0.00     0.144 A 
HETATM   12  C14 UNL     1      52.498   2.904  99.922  1.00  0.00     0.045 A 
HETATM   13  C15 UNL     1      51.935   1.735 100.519  1.00  0.00     0.022 A 
BRANCH  11  14
HETATM   14  N2  UNL     1      51.754   5.183  99.161  1.00  0.00    -0.108 N 
HETATM   15  O3  UNL     1      51.379   5.334  97.990  1.00  0.00    -0.531 OA
HETATM   16  O4  UNL     1      52.289   6.053  99.860  1.00  0.00    -0.531 OA
ENDBRANCH  11  14
ENDBRANCH   8   9
BRANCH   1  17
HETATM   17  C3  UNL     1      49.791   1.727 106.236  1.00  0.00     0.044 A 
HETATM   18  C2  UNL     1      49.953   0.943 107.386  1.00  0.00     0.033 A 
HETATM   19  C1  UNL     1      50.395   1.510 108.587  1.00  0.00     0.039 A 
HETATM   20  C6  UNL     1      50.697   2.868 108.670  1.00  0.00     0.068 A 
HETATM   21  C5  UNL     1      50.558   3.658 107.533  1.00  0.00     0.039 A 
HETATM   22  C4  UNL     1      50.114   3.090 106.329  1.00  0.00     0.033 A 
BRANCH  20  23
HETATM   23  O1  UNL     1      51.118   3.290 109.899  1.00  0.00    -0.356 OA
HETATM   24  C7  UNL     1      50.431   2.766 111.029  1.00  0.00     0.210 C 
ENDBRANCH  20  23
ENDBRANCH   1  17
TORSDOF 4
ENDMDL
