MODEL 1
REMARK VINA RESULT:      -6.9      0.000      0.000
REMARK  4 active torsions:
REMARK  status: ('A' for Active; 'I' for Inactive)
REMARK    1  A    between atoms: C9_11  and  C11_15 
REMARK    2  A    between atoms: N1_13  and  C10_14 
REMARK    3  A    between atoms: C10_14  and  C14_18 
REMARK    4  A    between atoms: C11_15  and  C12_16 
ROOT
HETATM    1  C1  UNL     1      50.933   2.579 102.976  1.00  0.00     0.105 A 
HETATM    2  C2  UNL     1      50.903   1.313 102.447  1.00  0.00     0.105 A 
HETATM    3  C3  UNL     1      50.502   0.282 103.243  1.00  0.00     0.040 A 
HETATM    4  C4  UNL     1      50.127   0.515 104.573  1.00  0.00     0.018 A 
HETATM    5  C5  UNL     1      50.146   1.771 105.131  1.00  0.00     0.015 A 
HETATM    6  C6  UNL     1      50.562   2.792 104.280  1.00  0.00     0.055 A 
HETATM    7  O1  UNL     1      51.372   3.415 101.962  1.00  0.00    -0.323 OA
HETATM    8  C7  UNL     1      52.059   2.600 101.019  1.00  0.00     0.352 C 
HETATM    9  O2  UNL     1      51.326   1.370 101.105  1.00  0.00    -0.323 OA
HETATM   10  C8  UNL     1      49.750   2.023 106.492  1.00  0.00     0.181 A 
HETATM   11  C9  UNL     1      49.199   1.069 107.462  1.00  0.00     0.153 A 
HETATM   12  O3  UNL     1      49.907   3.240 106.891  1.00  0.00    -0.290 OA
HETATM   13  N1  UNL     1      48.463  -0.003 106.895  1.00  0.00    -0.406 N 
HETATM   14  C15 UNL     1      48.547  -1.259 107.534  1.00  0.00     0.144 C 
HETATM   15 CL1  UNL     1      49.678   1.187 105.778  1.00  0.00    -0.145 Cl
HETATM   16  H24 UNL     1      48.906   0.996 106.906  1.00  0.00     0.145 HD
ENDROOT
BRANCH  13  17
HETATM   17  C10 UNL     1      47.276   0.325 106.203  1.00  0.00     0.117 C 
BRANCH  17  18
HETATM   18  C14 UNL     1      46.650  -0.818 105.436  1.00  0.00     0.015 C 
HETATM   19  C16 UNL     1      45.898  -0.393 104.216  1.00  0.00     0.006 C 
ENDBRANCH  17  18
ENDBRANCH  13  17
BRANCH  11  20
HETATM   20  C11 UNL     1      50.257   0.594 108.435  1.00  0.00     0.033 C 
BRANCH  20  21
HETATM   21  C12 UNL     1      49.954   1.042 109.819  1.00  0.00    -0.002 C 
HETATM   22  C13 UNL     1      50.725   2.254 110.265  1.00  0.00     0.005 C 
ENDBRANCH  20  21
ENDBRANCH  11  20
TORSDOF 4
ENDMDL
