MODEL 1
REMARK VINA RESULT:      -9.9      0.000      0.000
REMARK  1 active torsions:
REMARK  status: ('A' for Active; 'I' for Inactive)
REMARK    1  A    between atoms: C5_5  and  C6_6 
ROOT
HETATM    1  C1  UNL     1      57.867  12.368 112.486  1.00  0.00     0.001 A 
HETATM    2  C2  UNL     1      56.639  12.250 113.162  1.00  0.00     0.001 A 
HETATM    3  C3  UNL     1      56.465  12.797 114.436  1.00  0.00     0.011 A 
HETATM    4  C4  UNL     1      57.535  13.463 115.006  1.00  0.00    -0.007 A 
HETATM    5  C5  UNL     1      58.760  13.574 114.329  1.00  0.00    -0.016 A 
HETATM    6  C6  UNL     1      58.945  13.033 113.072  1.00  0.00     0.010 A 
HETATM    7  C7  UNL     1      57.701  14.134 116.359  1.00  0.00     0.210 A 
HETATM    8  C8  UNL     1      58.262  13.114 117.367  1.00  0.00    -0.009 A 
HETATM    9  C9  UNL     1      59.624  12.725 117.233  1.00  0.00    -0.047 A 
HETATM   10  C10 UNL     1      60.496  13.365 116.155  1.00  0.00     0.079 C 
HETATM   11  C11 UNL     1      59.711  14.323 115.226  1.00  0.00     0.260 A 
HETATM   12  C12 UNL     1      57.483  12.514 118.365  1.00  0.00     0.011 A 
HETATM   13  C13 UNL     1      58.045  11.565 119.225  1.00  0.00     0.001 A 
HETATM   14  C14 UNL     1      59.383  11.199 119.094  1.00  0.00     0.001 A 
HETATM   15  C15 UNL     1      60.174  11.775 118.102  1.00  0.00     0.008 A 
HETATM   16  N1  UNL     1      58.795  15.134 116.080  1.00  0.00     0.111 N 
HETATM   17  C16 UNL     1      56.454  14.896 116.815  1.00  0.00     0.060 C 
HETATM   18  C17 UNL     1      58.048  14.140 115.546  1.00  0.00     0.088 A 
HETATM   19  C18 UNL     1      58.347  12.990 114.682  1.00  0.00     0.165 A 
HETATM   20  O1  UNL     1      57.635  13.083 113.547  1.00  0.00    -0.773 OA
HETATM   21  C19 UNL     1      58.734  13.024 117.658  1.00  0.00     0.165 A 
HETATM   22  C20 UNL     1      58.263  14.163 116.867  1.00  0.00     0.088 A 
HETATM   23  O2  UNL     1      59.133  12.085 114.880  1.00  0.00    -0.647 OA
HETATM   24  O3  UNL     1      59.621  13.071 118.489  1.00  0.00    -0.647 OA
HETATM   25  O4  UNL     1      57.984  11.931 117.457  1.00  0.00    -0.773 OA
HETATM   26  H12 UNL     1      58.394  15.861 115.490  1.00  0.00     0.318 HD
HETATM   27  H17 UNL     1      57.897  12.285 113.042  1.00  0.00     0.167 HD
HETATM   28  H19 UNL     1      58.413  11.243 118.007  1.00  0.00     0.167 HD
ENDROOT
TORSDOF 1
ENDMDL
