MODEL 1
REMARK VINA RESULT:      -8.3      0.000      0.000
REMARK  7 active torsions:
REMARK  status: ('A' for Active; 'I' for Inactive)
REMARK    1  A    between atoms: C6_6  and  N1_7 
REMARK       I    between atoms: N1_7  and  C7_8 
REMARK    2  A    between atoms: N1_7  and  C8_9 
REMARK    3  A    between atoms: C7_8  and  C21_24 
REMARK    4  A    between atoms: N2_13  and  C13_16 
REMARK    5  A    between atoms: C11_14  and  C12_15 
REMARK    6  A    between atoms: C13_16  and  C14_17 
REMARK    7  A    between atoms: C14_17  and  C15_18 
ROOT
HETATM    1  C8  UNL     1      48.433  -0.270 105.493  1.00  0.00     0.095 A 
HETATM    2  C9  UNL     1      47.072  -0.057 106.063  1.00  0.00     0.056 A 
HETATM    3  C10 UNL     1      46.374  -1.446 106.128  1.00  0.00     0.274 A 
HETATM    4  N2  UNL     1      47.152  -2.314 105.260  1.00  0.00     0.088 N 
HETATM    5  C11 UNL     1      48.357  -2.704 105.996  1.00  0.00     0.274 A 
HETATM    6  C12 UNL     1      49.106  -1.399 106.311  1.00  0.00     0.056 A 
HETATM    7 CL1  UNL     1      47.820  -1.374 105.793  1.00  0.00    -0.145 Cl
HETATM    8  H35 UNL     1      48.387  -0.133 106.025  1.00  0.00     0.145 HD
ENDROOT
BRANCH   1   9
HETATM    9  N1  UNL     1      49.329   0.798 105.349  1.00  0.00    -0.324 N 
HETATM   10  C7  UNL     1      49.849   1.676 106.284  1.00  0.00     0.162 C 
HETATM   11  O1  UNL     1      50.822   2.440 105.845  1.00  0.00    -0.176 OA
BRANCH   9  12
HETATM   12  C6  UNL     1      49.852   0.975 103.990  1.00  0.00     0.036 A 
HETATM   13  C1  UNL     1      49.190   1.822 103.144  1.00  0.00     0.029 A 
HETATM   14  C2  UNL     1      49.647   2.008 101.839  1.00  0.00     0.002 A 
HETATM   15  C3  UNL     1      50.765   1.342 101.390  1.00  0.00     0.000 A 
HETATM   16  C4  UNL     1      51.424   0.497 102.234  1.00  0.00     0.002 A 
HETATM   17  C5  UNL     1      50.958   0.315 103.548  1.00  0.00     0.029 A 
ENDBRANCH   9  12
BRANCH  10  18
HETATM   18  C21 UNL     1      49.510   1.933 107.701  1.00  0.00     0.064 C 
HETATM   19  C22 UNL     1      50.158   3.203 108.119  1.00  0.00     0.013 C 
HETATM   20  C23 UNL     1      50.752   3.276 109.476  1.00  0.00     0.001 C 
HETATM   21  C24 UNL     1      51.412   1.973 109.855  1.00  0.00     0.000 C 
HETATM   22  C25 UNL     1      50.255   0.963 109.913  1.00  0.00     0.001 C 
HETATM   23  C26 UNL     1      49.867   0.706 108.487  1.00  0.00     0.013 C 
ENDBRANCH  10  18
ENDBRANCH   1   9
BRANCH   4  24
HETATM   24  C13 UNL     1      46.429  -3.514 104.916  1.00  0.00     0.277 C 
BRANCH  24  25
HETATM   25  C14 UNL     1      46.018  -3.621 103.491  1.00  0.00     0.068 C 
BRANCH  25  26
HETATM   26  C15 UNL     1      47.029  -3.139 102.537  1.00  0.00    -0.057 A 
HETATM   27  C16 UNL     1      47.857  -4.070 101.941  1.00  0.00     0.007 A 
HETATM   28  C17 UNL     1      48.826  -3.674 101.036  1.00  0.00     0.001 A 
HETATM   29  C18 UNL     1      48.992  -2.347 100.705  1.00  0.00     0.000 A 
HETATM   30  C19 UNL     1      48.160  -1.398 101.300  1.00  0.00     0.001 A 
HETATM   31  C20 UNL     1      47.213  -1.814 102.189  1.00  0.00     0.007 A 
ENDBRANCH  25  26
ENDBRANCH  24  25
ENDBRANCH   4  24
TORSDOF 7
ENDMDL
