MODEL 1
REMARK VINA RESULT:      -7.7      0.000      0.000
REMARK  10 active torsions:
REMARK  status: ('A' for Active; 'I' for Inactive)
REMARK    1  A    between atoms: C7_7  and  C9_10 
REMARK    2  A    between atoms: N1_9  and  C10_13 
REMARK       I    between atoms: C9_10  and  N2_11 
REMARK    3  A    between atoms: N2_11  and  C14_17 
REMARK    4  A    between atoms: C10_13  and  C11_14 
REMARK    5  A    between atoms: C11_14  and  C12_15 
REMARK    6  A    between atoms: C12_15  and  C13_16 
REMARK    7  A    between atoms: C13_16  and  C20_25 
REMARK    8  A    between atoms: C14_17  and  C15_18 
REMARK    9  A    between atoms: C14_17  and  C19_22 
REMARK   10  A    between atoms: C19_22  and  O2_23 
ROOT
HETATM    1  C1  UNL     1      49.637   1.055 110.167  1.00  0.00     0.030 A 
HETATM    2  C2  UNL     1      50.249   2.122 110.826  1.00  0.00     0.002 A 
HETATM    3  C3  UNL     1      50.827   3.162 110.108  1.00  0.00     0.001 A 
HETATM    4  C4  UNL     1      50.796   3.163 108.709  1.00  0.00     0.015 A 
HETATM    5  C5  UNL     1      50.161   2.109 108.011  1.00  0.00     0.008 A 
HETATM    6  C6  UNL     1      49.609   1.062 108.762  1.00  0.00     0.045 A 
HETATM    7  C7  UNL     1      49.943   1.807 106.623  1.00  0.00     0.060 A 
HETATM    8  C8  UNL     1      49.325   0.569 106.585  1.00  0.00     0.109 A 
HETATM    9  N1  UNL     1      49.112   0.141 107.865  1.00  0.00    -0.355 N 
ENDROOT
BRANCH   7  10
HETATM   10  C9  UNL     1      50.285   2.559 105.421  1.00  0.00     0.254 C 
HETATM   11  N2  UNL     1      50.262   1.828 104.260  1.00  0.00    -0.342 N 
HETATM   12  H6  UNL     1      50.006   0.849 104.303  1.00  0.00     0.163 HD
HETATM   13  O1  UNL     1      50.618   3.740 105.455  1.00  0.00    -0.268 OA
BRANCH  11  14
HETATM   14  C14 UNL     1      50.452   2.423 102.938  1.00  0.00     0.190 C 
BRANCH  14  15
HETATM   15  C15 UNL     1      51.287   1.512 101.990  1.00  0.00    -0.021 C 
HETATM   16  C16 UNL     1      52.246   0.622 102.807  1.00  0.00     0.017 C 
HETATM   17  C17 UNL     1      50.343   0.578 101.202  1.00  0.00     0.017 C 
HETATM   18  C18 UNL     1      52.119   2.328 100.980  1.00  0.00     0.017 C 
ENDBRANCH  14  15
BRANCH  14  19
HETATM   19  C19 UNL     1      49.044   2.724 102.413  1.00  0.00     0.164 C 
HETATM   20  O3  UNL     1      48.017   2.139 102.728  1.00  0.00    -0.648 OA
BRANCH  19  21
HETATM   21  O2  UNL     1      49.005   3.732 101.521  1.00  0.00    -0.775 OA
HETATM   22  H25 UNL     1      49.114   3.294 100.652  1.00  0.00     0.167 HD
ENDBRANCH  19  21
ENDBRANCH  14  19
ENDBRANCH  11  14
ENDBRANCH   7  10
BRANCH   9  23
HETATM   23  C10 UNL     1      48.453  -1.111 108.207  1.00  0.00     0.128 C 
BRANCH  23  24
HETATM   24  C11 UNL     1      48.317  -2.036 106.999  1.00  0.00     0.020 C 
BRANCH  24  25
HETATM   25  C12 UNL     1      46.870  -2.196 106.521  1.00  0.00     0.004 C 
BRANCH  25  26
HETATM   26  C13 UNL     1      46.676  -1.853 105.043  1.00  0.00     0.031 C 
BRANCH  26  27
HETATM   27  C20 UNL     1      46.256  -0.402 104.858  1.00  0.00     0.222 C 
HETATM   28  F1  UNL     1      45.887   0.111 106.061  1.00  0.00    -0.255 F 
ENDBRANCH  26  27
ENDBRANCH  25  26
ENDBRANCH  24  25
ENDBRANCH  23  24
ENDBRANCH   9  23
TORSDOF 10
ENDMDL
