MODEL 1
REMARK VINA RESULT:      -6.0      0.000      0.000
REMARK  23 active torsions:
REMARK  status: ('A' for Active; 'I' for Inactive)
REMARK    1  A    between atoms: O1_1  and  C1_2 
REMARK    2  A    between atoms: O1_1  and  C4_7 
REMARK    3  A    between atoms: C1_2  and  C2_3 
REMARK    4  A    between atoms: C2_3  and  C3_4 
REMARK    5  A    between atoms: C2_3  and  O3_6 
REMARK    6  A    between atoms: C3_4  and  O2_5 
REMARK    7  A    between atoms: O2_5  and  C18_23 
REMARK    8  A    between atoms: O3_6  and  C11_15 
REMARK    9  A    between atoms: C4_7  and  C5_8 
REMARK   10  A    between atoms: C5_8  and  C6_10 
REMARK   11  A    between atoms: C6_10  and  C7_11 
REMARK   12  A    between atoms: C7_11  and  C8_12 
REMARK   13  A    between atoms: C8_12  and  C9_13 
REMARK   14  A    between atoms: C11_15  and  C12_16 
REMARK   15  A    between atoms: C12_16  and  C13_18 
REMARK   16  A    between atoms: C13_18  and  C14_19 
REMARK   17  A    between atoms: C14_19  and  C15_20 
REMARK   18  A    between atoms: C15_20  and  C16_21 
REMARK   19  A    between atoms: C18_23  and  C19_24 
REMARK   20  A    between atoms: C19_24  and  C20_26 
REMARK   21  A    between atoms: C20_26  and  C21_27 
REMARK   22  A    between atoms: C21_27  and  C22_28 
REMARK   23  A    between atoms: C22_28  and  C23_29 
ROOT
HETATM    1  C2  UNL     1      49.881   4.064 103.572  1.00  0.00     0.180 C 
ENDROOT
BRANCH   1   2
HETATM    2  C1  UNL     1      48.759   3.147 103.073  1.00  0.00     0.213 C 
BRANCH   2   3
HETATM    3  O1  UNL     1      48.720   1.969 103.897  1.00  0.00    -0.319 OA
BRANCH   3   4
HETATM    4  C4  UNL     1      48.202   0.866 103.289  1.00  0.00     0.258 C 
HETATM    5  O4  UNL     1      47.471   0.888 102.311  1.00  0.00    -0.265 OA
BRANCH   4   6
HETATM    6  C5  UNL     1      48.698  -0.373 103.998  1.00  0.00     0.111 C 
BRANCH   6   7
HETATM    7  C6  UNL     1      49.518  -0.067 105.252  1.00  0.00     0.010 C 
BRANCH   7   8
HETATM    8  C7  UNL     1      49.089  -0.919 106.450  1.00  0.00     0.000 C 
BRANCH   8   9
HETATM    9  C8  UNL     1      47.673  -0.605 106.943  1.00  0.00    -0.000 C 
BRANCH   9  10
HETATM   10  C9  UNL     1      46.888  -1.847 107.368  1.00  0.00    -0.005 C 
HETATM   11  C10 UNL     1      47.575  -2.570 108.517  1.00  0.00     0.005 C 
ENDBRANCH   9  10
ENDBRANCH   8   9
ENDBRANCH   7   8
ENDBRANCH   6   7
ENDBRANCH   4   6
ENDBRANCH   3   4
ENDBRANCH   2   3
ENDBRANCH   1   2
BRANCH   1  12
HETATM   12  C3  UNL     1      50.334   5.042 102.483  1.00  0.00     0.213 C 
BRANCH  12  13
HETATM   13  O2  UNL     1      51.169   4.368 101.527  1.00  0.00    -0.319 OA
BRANCH  13  14
HETATM   14  C18 UNL     1      51.044   4.833 100.251  1.00  0.00     0.258 C 
HETATM   15  O6  UNL     1      51.782   5.658  99.734  1.00  0.00    -0.265 OA
BRANCH  14  16
HETATM   16  C19 UNL     1      49.852   4.178  99.591  1.00  0.00     0.111 C 
BRANCH  16  17
HETATM   17  C20 UNL     1      50.217   2.828  98.974  1.00  0.00     0.010 C 
BRANCH  17  18
HETATM   18  C21 UNL     1      50.102   1.654  99.951  1.00  0.00     0.000 C 
BRANCH  18  19
HETATM   19  C22 UNL     1      51.438   1.138 100.500  1.00  0.00    -0.000 C 
BRANCH  19  20
HETATM   20  C23 UNL     1      51.365   0.142 101.656  1.00  0.00    -0.005 C 
HETATM   21  C24 UNL     1      52.206   0.546 102.858  1.00  0.00     0.005 C 
ENDBRANCH  19  20
ENDBRANCH  18  19
ENDBRANCH  17  18
ENDBRANCH  16  17
ENDBRANCH  14  16
ENDBRANCH  13  14
ENDBRANCH  12  13
ENDBRANCH   1  12
BRANCH   1  22
HETATM   22  O3  UNL     1      49.385   4.843 104.688  1.00  0.00    -0.312 OA
BRANCH  22  23
HETATM   23  C11 UNL     1      50.235   5.022 105.736  1.00  0.00     0.259 C 
HETATM   24  O5  UNL     1      50.439   6.082 106.310  1.00  0.00    -0.265 OA
BRANCH  23  25
HETATM   25  C12 UNL     1      50.913   3.714 106.067  1.00  0.00     0.111 C 
BRANCH  25  26
HETATM   26  C13 UNL     1      50.201   2.936 107.173  1.00  0.00     0.010 C 
BRANCH  26  27
HETATM   27  C14 UNL     1      51.021   2.727 108.451  1.00  0.00     0.000 C 
BRANCH  27  28
HETATM   28  C15 UNL     1      50.418   3.303 109.736  1.00  0.00    -0.000 C 
BRANCH  28  29
HETATM   29  C16 UNL     1      50.199   2.255 110.828  1.00  0.00    -0.005 C 
HETATM   30  C17 UNL     1      49.654   0.959 110.246  1.00  0.00     0.005 C 
ENDBRANCH  28  29
ENDBRANCH  27  28
ENDBRANCH  26  27
ENDBRANCH  25  26
ENDBRANCH  23  25
ENDBRANCH  22  23
ENDBRANCH   1  22
TORSDOF 23
ENDMDL
