MODEL 1
REMARK VINA RESULT:      -8.3      0.000      0.000
REMARK  3 active torsions:
REMARK  status: ('A' for Active; 'I' for Inactive)
REMARK    1  A    between atoms: C2_2  and  O5_23 
REMARK    2  A    between atoms: C6_6  and  O4_22 
REMARK    3  A    between atoms: C15_16  and  O2_20 
ROOT
HETATM    1  C1  UNL     1      46.781  -2.399 107.265  1.00  0.00     0.074 A 
HETATM    2  C2  UNL     1      47.605  -2.274 108.370  1.00  0.00     0.068 A 
HETATM    3  C3  UNL     1      48.562  -1.266 108.431  1.00  0.00     0.044 A 
HETATM    4  C4  UNL     1      48.737  -0.353 107.366  1.00  0.00    -0.036 A 
HETATM    5  C5  UNL     1      47.916  -0.494 106.224  1.00  0.00     0.079 A 
HETATM    6  C6  UNL     1      46.929  -1.506 106.207  1.00  0.00     0.085 A 
HETATM    7  C7  UNL     1      49.753   0.752 107.590  1.00  0.00     0.040 C 
HETATM    8  C8  UNL     1      49.083   2.070 108.000  1.00  0.00     0.005 C 
HETATM    9  O1  UNL     1      49.274   0.666 104.701  1.00  0.00    -0.312 OA
HETATM   10  C9  UNL     1      48.001   0.350 105.002  1.00  0.00     0.297 C 
HETATM   11  C10 UNL     1      50.033   3.049 108.702  1.00  0.00     0.000 C 
HETATM   12  C11 UNL     1      51.239   3.559 107.903  1.00  0.00     0.002 C 
HETATM   13  C12 UNL     1      48.859   2.618 103.190  1.00  0.00     0.032 C 
HETATM   14  C13 UNL     1      49.589   1.277 103.424  1.00  0.00     0.128 C 
HETATM   15  C14 UNL     1      50.875   4.484 106.731  1.00  0.00     0.032 C 
HETATM   16  C15 UNL     1      50.740   3.729 105.407  1.00  0.00     0.118 C 
HETATM   17  C16 UNL     1      50.101   4.582 104.311  1.00  0.00     0.032 C 
HETATM   18  C17 UNL     1      49.812   3.814 103.011  1.00  0.00     0.005 C 
HETATM   19  C18 UNL     1      49.366   0.275 102.292  1.00  0.00     0.040 C 
HETATM   20  O3  UNL     1      47.012   0.585 104.317  1.00  0.00    -0.259 OA
ENDROOT
BRANCH   2  21
HETATM   21  O5  UNL     1      47.500  -3.114 109.438  1.00  0.00    -0.361 OA
HETATM   22  H26 UNL     1      47.890  -2.679 110.214  1.00  0.00     0.217 HD
ENDBRANCH   2  21
BRANCH   6  23
HETATM   23  O4  UNL     1      46.047  -1.689 105.168  1.00  0.00    -0.360 OA
HETATM   24  H25 UNL     1      46.061  -0.886 104.600  1.00  0.00     0.217 HD
ENDBRANCH   6  23
BRANCH  16  25
HETATM   25  O2  UNL     1      52.021   3.277 104.975  1.00  0.00    -0.396 OA
HETATM   26  H24 UNL     1      52.657   3.456 105.690  1.00  0.00     0.210 HD
ENDBRANCH  16  25
TORSDOF 3
ENDMDL
