MODEL 1
REMARK VINA RESULT:      -8.0      0.000      0.000
REMARK  4 active torsions:
REMARK  status: ('A' for Active; 'I' for Inactive)
REMARK    1  A    between atoms: C3_5  and  C8_11 
REMARK    2  A    between atoms: C8_11  and  S2_12 
REMARK    3  A    between atoms: N3_14  and  C16_22 
REMARK    4  A    between atoms: N4_15  and  C10_16 
ROOT
HETATM    1  S2  UNL     1      47.835   0.090 104.756  1.00  0.00    -0.087 SA
HETATM    2  C9  UNL     1      49.200   1.003 105.476  1.00  0.00     0.158 A 
HETATM    3  N3  UNL     1      49.821   0.681 106.712  1.00  0.00    -0.365 N 
HETATM    4  N4  UNL     1      49.669   2.036 104.868  1.00  0.00    -0.262 N 
HETATM    5 CL1  UNL     1      49.565   0.069 105.115  1.00  0.00    -0.145 Cl
HETATM    6 CL2  UNL     1      49.565   0.069 105.115  1.00  0.00    -0.145 Cl
HETATM    7  H12 UNL     1      49.995  -0.377 106.819  1.00  0.00     0.162 HD
HETATM    8  H35 UNL     1      49.638   1.211 105.879  1.00  0.00     0.145 HD
HETATM    9  H36 UNL     1      49.638   1.211 105.879  1.00  0.00     0.145 HD
ENDROOT
BRANCH   1  10
HETATM   10  C8  UNL     1      47.336  -1.335 105.697  1.00  0.00     0.140 C 
BRANCH  10  11
HETATM   11  C3  UNL     1      47.562  -2.598 104.875  1.00  0.00     0.030 A 
HETATM   12  N1  UNL     1      48.131  -3.747 105.434  1.00  0.00    -0.326 N 
HETATM   13  C1  UNL     1      48.289  -4.850 104.574  1.00  0.00     0.169 A 
HETATM   14  C4  UNL     1      48.655  -4.179 106.758  1.00  0.00     0.163 A 
HETATM   15  S1  UNL     1      47.642  -4.259 103.008  1.00  0.00    -0.062 SA
HETATM   16  N2  UNL     1      48.821  -5.872 105.163  1.00  0.00    -0.254 NA
HETATM   17  C2  UNL     1      47.224  -2.636 103.613  1.00  0.00     0.079 A 
HETATM   18  C5  UNL     1      49.098  -5.582 106.534  1.00  0.00     0.065 A 
HETATM   19  C6  UNL     1      48.304  -6.587 107.375  1.00  0.00     0.042 C 
HETATM   20  C7  UNL     1      50.558  -5.761 106.889  1.00  0.00     0.042 C 
ENDBRANCH  10  11
ENDBRANCH   1  10
BRANCH   3  21
HETATM   21  C16 UNL     1      50.125   1.696 107.619  1.00  0.00     0.083 C 
HETATM   22  C17 UNL     1      51.329   0.989 108.387  1.00  0.00     0.025 C 
HETATM   23  C18 UNL     1      51.856   1.874 109.460  1.00  0.00     0.002 C 
HETATM   24  C19 UNL     1      51.112   3.162 109.633  1.00  0.00     0.000 C 
HETATM   25  C20 UNL     1      49.651   2.818 109.783  1.00  0.00     0.002 C 
HETATM   26  C21 UNL     1      49.189   1.766 108.833  1.00  0.00     0.025 C 
ENDBRANCH   3  21
BRANCH   4  27
HETATM   27  C10 UNL     1      50.739   2.795 105.375  1.00  0.00     0.111 C 
HETATM   28  C11 UNL     1      51.595   2.720 104.035  1.00  0.00     0.027 C 
HETATM   29  C12 UNL     1      50.886   3.414 102.949  1.00  0.00     0.002 C 
HETATM   30  C13 UNL     1      49.519   3.919 103.194  1.00  0.00     0.000 C 
HETATM   31  C14 UNL     1      49.487   4.667 104.481  1.00  0.00     0.002 C 
HETATM   32  C15 UNL     1      50.598   4.268 105.431  1.00  0.00     0.027 C 
ENDBRANCH   4  27
TORSDOF 4
ENDMDL
