MODEL 1
REMARK VINA RESULT:      -8.2      0.000      0.000
REMARK  3 active torsions:
REMARK  status: ('A' for Active; 'I' for Inactive)
REMARK    1  A    between atoms: C1_1  and  N5_18 
REMARK    2  A    between atoms: N4_9  and  C7_12 
REMARK    3  A    between atoms: N5_18  and  C12_19 
ROOT
HETATM    1  C1  UNL     1      48.769   1.241 104.161  1.00  0.00     0.728 A 
HETATM    2  N1  UNL     1      48.369   1.806 102.991  1.00  0.00    -0.073 NA
HETATM    3  C2  UNL     1      47.353   1.230 102.309  1.00  0.00     0.170 A 
HETATM    4  C3  UNL     1      46.747   0.115 102.786  1.00  0.00     0.103 A 
HETATM    5  C4  UNL     1      47.214  -0.383 103.979  1.00  0.00     0.182 A 
HETATM    6  N2  UNL     1      48.212   0.140 104.691  1.00  0.00    -0.042 NA
HETATM    7  N3  UNL     1      45.705  -0.687 102.326  1.00  0.00    -0.299 N 
HETATM    8  C5  UNL     1      45.507  -1.726 103.260  1.00  0.00     0.331 A 
HETATM    9  N4  UNL     1      46.455  -1.522 104.286  1.00  0.00    -0.276 N 
HETATM   10  C6  UNL     1      44.965  -0.484 101.115  1.00  0.00     0.161 C 
HETATM   11  O1  UNL     1      44.677  -2.618 103.190  1.00  0.00    -0.246 OA
ENDROOT
BRANCH   1  12
HETATM   12  N5  UNL     1      49.822   1.907 104.786  1.00  0.00    -0.186 N 
HETATM   13  H14 UNL     1      50.513   2.147 104.091  1.00  0.00     0.184 HD
BRANCH  12  14
HETATM   14  C12 UNL     1      50.061   2.239 106.101  1.00  0.00     0.073 A 
HETATM   15  C13 UNL     1      50.003   1.390 107.150  1.00  0.00     0.151 A 
HETATM   16  N6  UNL     1      50.267   1.815 108.448  1.00  0.00    -0.224 N 
HETATM   17  C14 UNL     1      50.605   3.129 108.754  1.00  0.00     0.152 A 
HETATM   18  N7  UNL     1      50.256   1.089 109.594  1.00  0.00    -0.159 NA
HETATM   19  C15 UNL     1      50.676   4.052 107.682  1.00  0.00     0.061 A 
HETATM   20  N8  UNL     1      50.804   3.262 110.045  1.00  0.00    -0.221 NA
HETATM   21  C16 UNL     1      50.422   3.652 106.414  1.00  0.00    -0.029 A 
HETATM   22  C17 UNL     1      50.501   4.661 105.298  1.00  0.00     0.050 C 
HETATM   23  C18 UNL     1      50.581   2.001 110.512  1.00  0.00     0.258 A 
ENDBRANCH  12  14
ENDBRANCH   1  12
BRANCH   9  24
HETATM   24  C7  UNL     1      46.643  -2.329 105.478  1.00  0.00     0.100 C 
HETATM   25  C8  UNL     1      47.918  -3.183 105.393  1.00  0.00     0.052 C 
HETATM   26  C9  UNL     1      48.527  -3.429 106.767  1.00  0.00     0.169 C 
HETATM   27  O2  UNL     1      47.493  -3.578 107.734  1.00  0.00    -0.391 OA
HETATM   28  C10 UNL     1      46.792  -2.358 107.984  1.00  0.00     0.169 C 
HETATM   29  C11 UNL     1      46.645  -1.477 106.747  1.00  0.00     0.052 C 
ENDBRANCH   9  24
TORSDOF 3
ENDMDL
