MODEL 1
REMARK VINA RESULT:      -6.7      0.000      0.000
REMARK  15 active torsions:
REMARK  status: ('A' for Active; 'I' for Inactive)
REMARK    1  A    between atoms: C1_1  and  C2_2 
REMARK    2  A    between atoms: C1_1  and  C5_5 
REMARK    3  A    between atoms: C3_3  and  C12_12 
REMARK    4  A    between atoms: C4_4  and  C6_6 
REMARK    5  A    between atoms: C6_6  and  C7_7 
REMARK    6  A    between atoms: C8_8  and  C9_9 
REMARK    7  A    between atoms: C9_9  and  C10_10 
REMARK    8  A    between atoms: C10_10  and  C11_11 
REMARK    9  A    between atoms: C11_11  and  C20_21 
REMARK   10  A    between atoms: C12_12  and  C13_13 
REMARK   11  A    between atoms: C14_14  and  C15_15 
REMARK   12  A    between atoms: C15_15  and  C16_16 
REMARK   13  A    between atoms: C16_16  and  C17_17 
REMARK   14  A    between atoms: C17_17  and  C18_18 
REMARK   15  A    between atoms: C20_21  and  O3_23 
ROOT
HETATM    1  C1  UNL     1      49.272   0.773 107.934  1.00  0.00     0.053 C 
ENDROOT
BRANCH   1   2
HETATM    2  C2  UNL     1      49.948  -0.170 106.980  1.00  0.00    -0.027 C 
HETATM    3  C3  UNL     1      49.801  -0.220 105.645  1.00  0.00    -0.028 C 
BRANCH   3   4
HETATM    4  C12 UNL     1      48.861   0.600 104.803  1.00  0.00     0.061 C 
BRANCH   4   5
HETATM    5  C13 UNL     1      47.853  -0.230 104.060  1.00  0.00     0.154 A 
HETATM    6  C14 UNL     1      47.842  -0.401 102.552  1.00  0.00     0.151 A 
HETATM    7  O1  UNL     1      48.401  -1.393 103.427  1.00  0.00    -0.375 OA
BRANCH   6   8
HETATM    8  C15 UNL     1      48.819   0.262 101.630  1.00  0.00     0.034 C 
BRANCH   8   9
HETATM    9  C16 UNL     1      50.056  -0.585 101.310  1.00  0.00     0.002 C 
BRANCH   9  10
HETATM   10  C17 UNL     1      51.386   0.178 101.315  1.00  0.00    -0.000 C 
BRANCH  10  11
HETATM   11  C18 UNL     1      51.961   0.390 102.718  1.00  0.00    -0.005 C 
HETATM   12  C19 UNL     1      52.267   1.855 102.976  1.00  0.00     0.005 C 
ENDBRANCH  10  11
ENDBRANCH   9  10
ENDBRANCH   8   9
ENDBRANCH   6   8
ENDBRANCH   4   5
ENDBRANCH   3   4
ENDBRANCH   1   2
BRANCH   1  13
HETATM   13  C5  UNL     1      49.540   0.403 109.363  1.00  0.00    -0.027 C 
HETATM   14  C4  UNL     1      49.903   1.236 110.356  1.00  0.00    -0.027 C 
BRANCH  14  15
HETATM   15  C6  UNL     1      50.158   2.715 110.245  1.00  0.00     0.053 C 
BRANCH  15  16
HETATM   16  C7  UNL     1      51.478   2.995 109.580  1.00  0.00    -0.027 C 
HETATM   17  C8  UNL     1      51.695   3.563 108.382  1.00  0.00    -0.030 C 
BRANCH  17  18
HETATM   18  C9  UNL     1      50.666   4.052 107.399  1.00  0.00     0.027 C 
BRANCH  18  19
HETATM   19  C10 UNL     1      50.985   3.655 105.950  1.00  0.00     0.014 C 
BRANCH  19  20
HETATM   20  C11 UNL     1      49.908   4.035 104.933  1.00  0.00     0.110 C 
BRANCH  20  21
HETATM   21  C20 UNL     1      50.380   5.090 103.972  1.00  0.00     0.139 C 
HETATM   22  O2  UNL     1      51.107   6.038 104.224  1.00  0.00    -0.650 OA
BRANCH  21  23
HETATM   23  O3  UNL     1      49.872   4.922 102.737  1.00  0.00    -0.776 OA
HETATM   24  H32 UNL     1      49.448   5.785 102.536  1.00  0.00     0.167 HD
ENDBRANCH  21  23
ENDBRANCH  20  21
ENDBRANCH  19  20
ENDBRANCH  18  19
ENDBRANCH  17  18
ENDBRANCH  15  16
ENDBRANCH  14  15
ENDBRANCH   1  13
TORSDOF 15
ENDMDL
