MODEL 1
REMARK VINA RESULT:      -8.1      0.000      0.000
REMARK  9 active torsions:
REMARK  status: ('A' for Active; 'I' for Inactive)
REMARK    1  A    between atoms: N1_1  and  C5_8 
REMARK       I    between atoms: N2_4  and  C17_22 
REMARK    2  A    between atoms: C3_5  and  C10_15 
REMARK    3  A    between atoms: C5_8  and  C6_9 
REMARK    4  A    between atoms: C10_15  and  C11_16 
REMARK       I    between atoms: C17_22  and  N5_23 
REMARK    5  A    between atoms: N5_23  and  C18_25 
REMARK    6  A    between atoms: C18_25  and  C19_26 
REMARK    7  A    between atoms: C18_25  and  C23_30 
REMARK    8  A    between atoms: C19_26  and  C20_27 
REMARK    9  A    between atoms: C23_30  and  O3_31 
ROOT
HETATM    1  N1  UNL     1      49.223   1.535 104.038  1.00  0.00    -0.343 N 
HETATM    2  C1  UNL     1      48.475   0.362 103.601  1.00  0.00     0.146 C 
HETATM    3  C2  UNL     1      48.848  -0.884 104.393  1.00  0.00     0.148 C 
HETATM    4  N2  UNL     1      48.606  -0.658 105.814  1.00  0.00    -0.319 N 
HETATM    5  C3  UNL     1      49.172   0.587 106.378  1.00  0.00     0.185 C 
HETATM    6  C4  UNL     1      49.531   1.726 105.381  1.00  0.00     0.243 C 
HETATM    7  O1  UNL     1      50.059   2.767 105.782  1.00  0.00    -0.271 OA
HETATM    8  C17 UNL     1      47.870  -1.467 106.654  1.00  0.00     0.319 C 
HETATM    9  N5  UNL     1      47.482  -2.664 106.131  1.00  0.00    -0.329 N 
HETATM   10  O2  UNL     1      47.571  -1.137 107.798  1.00  0.00    -0.247 OA
HETATM   11  H20 UNL     1      48.088  -3.083 105.437  1.00  0.00     0.165 HD
ENDROOT
BRANCH   5  12
HETATM   12  C10 UNL     1      50.368   0.315 107.324  1.00  0.00     0.073 C 
BRANCH  12  13
HETATM   13  C11 UNL     1      50.359   1.133 108.598  1.00  0.00    -0.056 A 
HETATM   14  C12 UNL     1      49.572   0.741 109.690  1.00  0.00     0.007 A 
HETATM   15  C13 UNL     1      49.539   1.511 110.854  1.00  0.00     0.001 A 
HETATM   16  C14 UNL     1      50.290   2.683 110.938  1.00  0.00     0.000 A 
HETATM   17  C15 UNL     1      51.081   3.079 109.862  1.00  0.00     0.001 A 
HETATM   18  C16 UNL     1      51.116   2.309 108.699  1.00  0.00     0.007 A 
ENDBRANCH  12  13
ENDBRANCH   5  12
BRANCH   9  19
HETATM   19  C18 UNL     1      46.671  -3.612 106.909  1.00  0.00     0.184 C 
BRANCH  19  20
HETATM   20  C19 UNL     1      45.955  -4.579 105.955  1.00  0.00     0.040 C 
BRANCH  20  21
HETATM   21  C20 UNL     1      46.194  -4.286 104.460  1.00  0.00    -0.020 C 
HETATM   22  C21 UNL     1      46.996  -5.422 103.814  1.00  0.00     0.009 C 
HETATM   23  C22 UNL     1      44.877  -4.116 103.697  1.00  0.00     0.009 C 
ENDBRANCH  20  21
ENDBRANCH  19  20
BRANCH  19  24
HETATM   24  C23 UNL     1      47.624  -4.315 107.869  1.00  0.00     0.163 C 
HETATM   25  O4  UNL     1      48.475  -5.140 107.560  1.00  0.00    -0.648 OA
BRANCH  24  26
HETATM   26  O3  UNL     1      47.475  -3.931 109.153  1.00  0.00    -0.775 OA
HETATM   27  H31 UNL     1      48.054  -4.538 109.660  1.00  0.00     0.167 HD
ENDBRANCH  24  26
ENDBRANCH  19  24
ENDBRANCH   9  19
BRANCH   1  28
HETATM   28  C5  UNL     1      49.435   2.620 103.091  1.00  0.00     0.185 C 
BRANCH  28  29
HETATM   29  C6  UNL     1      50.118   2.110 101.874  1.00  0.00     0.052 A 
HETATM   30  C7  UNL     1      51.241   1.320 101.701  1.00  0.00     0.056 A 
HETATM   31  N3  UNL     1      51.475   1.109 100.363  1.00  0.00    -0.247 NA
HETATM   32  C9  UNL     1      52.134   0.733 102.726  1.00  0.00     0.072 C 
HETATM   33  C8  UNL     1      50.516   1.745  99.730  1.00  0.00     0.207 A 
HETATM   34  N4  UNL     1      49.664   2.354 100.601  1.00  0.00    -0.351 N 
HETATM   35  H9  UNL     1      48.847   2.889 100.343  1.00  0.00     0.166 HD
ENDBRANCH  28  29
ENDBRANCH   1  28
TORSDOF 9
ENDMDL
