MODEL 1
REMARK VINA RESULT:      -8.4      0.000      0.000
REMARK  6 active torsions:
REMARK  status: ('A' for Active; 'I' for Inactive)
REMARK    1  A    between atoms: C2_2  and  O2_8 
REMARK    2  A    between atoms: C3_3  and  C7_9 
REMARK    3  A    between atoms: C6_6  and  O1_7 
REMARK    4  A    between atoms: C11_14  and  C12_16 
REMARK    5  A    between atoms: C12_16  and  C13_17 
REMARK    6  A    between atoms: C20_24  and  O6_29 
ROOT
HETATM    1  C7  UNL     1      50.131   1.541 102.728  1.00  0.00     0.099 A 
HETATM    2  O3  UNL     1      50.253   2.006 104.023  1.00  0.00    -0.307 OA
HETATM    3  C8  UNL     1      49.835   1.211 105.063  1.00  0.00     0.106 A 
HETATM    4  C9  UNL     1      49.200  -0.009 104.840  1.00  0.00     0.083 A 
HETATM    5  C10 UNL     1      48.990  -0.453 103.457  1.00  0.00     0.197 A 
HETATM    6  C11 UNL     1      49.558   0.376 102.368  1.00  0.00     0.031 A 
HETATM    7  O4  UNL     1      48.347  -1.480 103.245  1.00  0.00    -0.287 OA
HETATM    8  C17 UNL     1      50.056   1.667 106.375  1.00  0.00     0.032 A 
HETATM    9  C18 UNL     1      49.628   0.882 107.450  1.00  0.00     0.086 A 
HETATM   10  C19 UNL     1      48.982  -0.336 107.226  1.00  0.00     0.075 A 
HETATM   11  C20 UNL     1      48.769  -0.779 105.926  1.00  0.00     0.085 A 
HETATM   12  C21 UNL     1      50.710   2.943 106.651  1.00  0.00     0.016 C 
HETATM   13  C22 UNL     1      50.952   3.269 107.923  1.00  0.00     0.012 C 
HETATM   14  C23 UNL     1      50.576   2.386 109.091  1.00  0.00     0.078 C 
HETATM   15  O5  UNL     1      49.777   1.233 108.762  1.00  0.00    -0.336 OA
HETATM   16  C24 UNL     1      49.750   3.201 110.093  1.00  0.00     0.051 C 
HETATM   17  C25 UNL     1      51.848   1.869 109.772  1.00  0.00     0.051 C 
ENDROOT
BRANCH   1  18
HETATM   18  C3  UNL     1      50.706   2.480 101.750  1.00  0.00     0.032 A 
HETATM   19  C2  UNL     1      50.129   3.732 101.499  1.00  0.00     0.081 A 
HETATM   20  C1  UNL     1      50.690   4.603 100.567  1.00  0.00     0.074 A 
HETATM   21  C6  UNL     1      51.835   4.216  99.879  1.00  0.00     0.068 A 
HETATM   22  C5  UNL     1      52.425   2.975 100.104  1.00  0.00     0.037 A 
HETATM   23  C4  UNL     1      51.858   2.107 101.039  1.00  0.00     0.020 A 
BRANCH  19  24
HETATM   24  O2  UNL     1      49.000   4.100 102.182  1.00  0.00    -0.360 OA
HETATM   25  H5  UNL     1      48.239   3.621 101.813  1.00  0.00     0.217 HD
ENDBRANCH  19  24
BRANCH  21  26
HETATM   26  O1  UNL     1      52.357   5.095  98.975  1.00  0.00    -0.361 OA
HETATM   27  H4  UNL     1      52.457   4.644  98.120  1.00  0.00     0.217 HD
ENDBRANCH  21  26
ENDBRANCH   1  18
BRANCH   6  28
HETATM   28  C12 UNL     1      49.403  -0.153 100.965  1.00  0.00     0.073 C 
BRANCH  28  29
HETATM   29  C13 UNL     1      48.105   0.285 100.340  1.00  0.00    -0.020 C 
HETATM   30  C14 UNL     1      47.913   1.133  99.310  1.00  0.00    -0.091 C 
HETATM   31  C15 UNL     1      49.000   1.855  98.563  1.00  0.00     0.042 C 
HETATM   32  C16 UNL     1      46.522   1.445  98.824  1.00  0.00     0.042 C 
ENDBRANCH  28  29
ENDBRANCH   6  28
BRANCH  11  33
HETATM   33  O6  UNL     1      48.129  -1.980 105.782  1.00  0.00    -0.360 OA
HETATM   34  H18 UNL     1      48.321  -2.321 104.879  1.00  0.00     0.217 HD
ENDBRANCH  11  33
TORSDOF 6
ENDMDL
