MODEL 1
REMARK VINA RESULT:      -7.2      0.000      0.000
REMARK  3 active torsions:
REMARK  status: ('A' for Active; 'I' for Inactive)
REMARK    1  A    between atoms: C8_9  and  C9_11 
REMARK    2  A    between atoms: C8_9  and  N1_15 
REMARK    3  A    between atoms: C9_11  and  C10_12 
ROOT
HETATM    1  C1  UNL     1      51.027   3.220 108.388  1.00  0.00     0.025 A 
HETATM    2  C2  UNL     1      50.357   2.501 109.361  1.00  0.00     0.034 A 
HETATM    3  C3  UNL     1      49.477   1.520 108.984  1.00  0.00     0.025 A 
HETATM    4  C4  UNL     1      49.264   1.252 107.659  1.00  0.00     0.017 A 
HETATM    5  C5  UNL     1      49.912   1.945 106.642  1.00  0.00     0.012 A 
HETATM    6  C6  UNL     1      50.787   2.923 107.040  1.00  0.00     0.017 A 
HETATM    7 CL1  UNL     1      50.637   2.853 111.050  1.00  0.00    -0.084 Cl
HETATM    8  C7  UNL     1      49.715   1.646 105.248  1.00  0.00     0.192 A 
HETATM    9  C8  UNL     1      50.268   2.377 104.091  1.00  0.00     0.297 A 
HETATM   10  O1  UNL     1      48.978   0.627 104.999  1.00  0.00    -0.290 OA
HETATM   11 CL2  UNL     1      50.221   2.127 105.425  1.00  0.00    -0.145 Cl
HETATM   12  H21 UNL     1      50.320   2.382 104.068  1.00  0.00     0.145 HD
ENDROOT
BRANCH   9  13
HETATM   13  C9  UNL     1      49.119   3.227 103.550  1.00  0.00     0.044 C 
BRANCH  13  14
HETATM   14  C10 UNL     1      49.125   4.637 104.012  1.00  0.00    -0.002 C 
HETATM   15  C11 UNL     1      50.501   5.229 103.862  1.00  0.00     0.005 C 
ENDBRANCH  13  14
ENDBRANCH   9  13
BRANCH   9  16
HETATM   16  N1  UNL     1      50.453   1.378 103.029  1.00  0.00     0.100 NA
HETATM   17  C12 UNL     1      50.154   1.913 101.730  1.00  0.00     0.273 C 
HETATM   18  C15 UNL     1      51.009   1.153 100.730  1.00  0.00     0.032 C 
HETATM   19  C14 UNL     1      51.785   0.185 101.619  1.00  0.00     0.032 C 
HETATM   20  C13 UNL     1      51.867   1.024 102.902  1.00  0.00     0.273 C 
ENDBRANCH   9  16
TORSDOF 3
ENDMDL
