MODEL 1
REMARK VINA RESULT:      -8.7      0.000      0.000
REMARK  2 active torsions:
REMARK  status: ('A' for Active; 'I' for Inactive)
REMARK    1  A    between atoms: C2_4  and  C15_20 
REMARK    2  A    between atoms: C6_9  and  N3_12 
ROOT
HETATM    1  N1  UNL     1      50.316   3.087 103.646  1.00  0.00    -0.271 N 
HETATM    2  C1  UNL     1      50.424   4.464 103.714  1.00  0.00     0.137 A 
HETATM    3  N2  UNL     1      50.517   5.249 102.685  1.00  0.00    -0.228 NA
HETATM    4  C2  UNL     1      50.507   4.664 101.444  1.00  0.00     0.095 A 
HETATM    5  C3  UNL     1      50.410   3.346 101.243  1.00  0.00     0.109 A 
HETATM    6  C4  UNL     1      50.308   2.460 102.411  1.00  0.00     0.255 A 
HETATM    7  O1  UNL     1      50.225   1.246 102.225  1.00  0.00    -0.268 OA
HETATM    8  C5  UNL     1      50.212   2.316 104.799  1.00  0.00     0.131 A 
HETATM    9  C6  UNL     1      50.202   2.830 106.047  1.00  0.00     0.046 A 
HETATM   10  C7  UNL     1      50.337   4.275 106.150  1.00  0.00     0.034 A 
HETATM   11  C8  UNL     1      50.439   5.063 105.071  1.00  0.00     0.053 A 
ENDROOT
BRANCH   4  12
HETATM   12  C15 UNL     1      50.608   5.534 100.205  1.00  0.00     0.107 A 
HETATM   13  C16 UNL     1      49.968   4.958  98.976  1.00  0.00     0.046 A 
HETATM   14  C17 UNL     1      50.004   5.651  97.823  1.00  0.00    -0.012 A 
HETATM   15  C18 UNL     1      50.663   6.911  97.846  1.00  0.00     0.156 A 
HETATM   16  C19 UNL     1      49.366   5.091  96.580  1.00  0.00     0.052 C 
HETATM   17  N5  UNL     1      51.215   7.332  99.041  1.00  0.00    -0.224 N 
HETATM   18  N7  UNL     1      50.857   7.800  96.890  1.00  0.00    -0.232 NA
HETATM   19  N6  UNL     1      51.215   6.687 100.237  1.00  0.00    -0.164 NA
HETATM   20  C21 UNL     1      51.783   8.555  98.811  1.00  0.00     0.147 A 
HETATM   21  C20 UNL     1      51.552   8.829  97.481  1.00  0.00     0.050 A 
HETATM   22  C22 UNL     1      51.955  10.020  96.699  1.00  0.00     0.072 C 
ENDBRANCH   4  12
BRANCH   9  23
HETATM   23  N3  UNL     1      50.090   2.060 107.210  1.00  0.00    -0.376 N 
HETATM   24  C9  UNL     1      49.088   0.971 107.327  1.00  0.00     0.153 C 
HETATM   25  C10 UNL     1      49.434  -0.040 108.435  1.00  0.00     0.290 C 
HETATM   26  N4  UNL     1      49.498   0.590 109.762  1.00  0.00     0.096 N 
HETATM   27  C11 UNL     1      50.256   1.878 109.698  1.00  0.00     0.173 A 
HETATM   28  H9  UNL     1      48.544   0.786 110.065  1.00  0.00     0.317 HD
HETATM   29  C12 UNL     1      50.980   2.214 108.383  1.00  0.00     0.164 C 
HETATM   30  C13 UNL     1      49.698   3.034 110.507  1.00  0.00     0.046 A 
HETATM   31  C14 UNL     1      50.924   2.316 110.985  1.00  0.00     0.046 A 
ENDBRANCH   9  23
TORSDOF 2
ENDMDL
