MODEL 1
REMARK VINA RESULT:      -8.3      0.000      0.000
REMARK  1 active torsions:
REMARK  status: ('A' for Active; 'I' for Inactive)
REMARK    1  A    between atoms: C13_13  and  C17_21 
ROOT
HETATM    1  C1  UNL     1      47.430  -0.324 104.221  1.00  0.00     0.018 C 
HETATM    2  C2  UNL     1      48.634   0.650 104.016  1.00  0.00     0.001 C 
HETATM    3  C3  UNL     1      48.067   2.026 103.478  1.00  0.00     0.031 C 
HETATM    4  C4  UNL     1      47.072   1.827 102.371  1.00  0.00    -0.038 A 
HETATM    5  C5  UNL     1      46.444   0.672 102.162  1.00  0.00     0.022 A 
HETATM    6  C6  UNL     1      46.606  -0.574 102.943  1.00  0.00     0.046 C 
HETATM    7  C7  UNL     1      49.394   0.930 105.342  1.00  0.00     0.139 A 
HETATM    8  C8  UNL     1      50.062   2.326 105.492  1.00  0.00     0.185 A 
HETATM    9  C9  UNL     1      49.998   3.339 104.347  1.00  0.00     0.169 A 
HETATM   10  C10 UNL     1      49.202   3.009 103.127  1.00  0.00     0.045 C 
HETATM   11  C11 UNL     1      49.201   0.087 106.615  1.00  0.00     0.194 A 
HETATM   12  C12 UNL     1      49.702   0.598 107.944  1.00  0.00     0.198 A 
HETATM   13  C13 UNL     1      50.284   2.000 108.059  1.00  0.00     0.156 A 
HETATM   14  C14 UNL     1      50.235   2.912 106.869  1.00  0.00     0.204 C 
HETATM   15  C15 UNL     1      46.595   2.853 101.426  1.00  0.00     0.214 A 
HETATM   16  O1  UNL     1      45.623   2.166 100.631  1.00  0.00    -0.313 OA
HETATM   17  C16 UNL     1      45.521   0.873 101.048  1.00  0.00     0.289 A 
HETATM   18  O2  UNL     1      44.784   0.027 100.579  1.00  0.00    -0.260 OA
HETATM   19  O3  UNL     1      50.312   4.127 107.030  1.00  0.00    -0.291 OA
HETATM   20  O4  UNL     1      48.961   1.666 108.538  1.00  0.00    -0.358 OA
HETATM   21  O5  UNL     1      51.162   2.548 104.587  1.00  0.00    -0.357 OA
HETATM   22  C20 UNL     1      49.618   0.004 102.997  1.00  0.00     0.019 C 
HETATM   23  O6  UNL     1      50.252  -0.182 105.696  1.00  0.00    -0.362 OA
ENDROOT
BRANCH  13  24
HETATM   24  C17 UNL     1      51.317   2.287 109.145  1.00  0.00     0.022 C 
HETATM   25  C18 UNL     1      52.556   3.049 108.669  1.00  0.00     0.013 C 
HETATM   26  C19 UNL     1      50.655   3.025 110.311  1.00  0.00     0.013 C 
ENDBRANCH  13  24
TORSDOF 1
ENDMDL
