MODEL 1
REMARK VINA RESULT:      -7.1      0.000      0.000
REMARK  7 active torsions:
REMARK  status: ('A' for Active; 'I' for Inactive)
REMARK    1  A    between atoms: O1_1  and  C1_2 
REMARK    2  A    between atoms: C1_2  and  C2_3 
REMARK    3  A    between atoms: C2_3  and  C3_5 
REMARK    4  A    between atoms: C2_3  and  C4_6 
REMARK    5  A    between atoms: C4_6  and  O3_7 
REMARK    6  A    between atoms: C13_16  and  C14_17 
REMARK    7  A    between atoms: N1_20  and  C18_22 
ROOT
HETATM    1  O1  UNL     1      49.553   0.234 104.418  1.00  0.00    -0.315 OA
HETATM    2  C10 UNL     1      50.313   0.008 101.501  1.00  0.00     0.036 A 
HETATM    3  C11 UNL     1      51.682   0.301 102.114  1.00  0.00     0.036 A 
HETATM    4  C12 UNL     1      51.677   1.797 102.427  1.00  0.00     0.193 A 
HETATM    5  C13 UNL     1      51.041   2.065 103.806  1.00  0.00     0.066 A 
HETATM    6  C14 UNL     1      49.579   1.598 103.943  1.00  0.00     0.136 A 
HETATM    7  C15 UNL     1      48.772   1.638 102.633  1.00  0.00     0.066 C 
HETATM    8  C16 UNL     1      49.619   1.376 101.371  1.00  0.00     0.193 A 
HETATM    9  N1  UNL     1      50.796   2.396 101.298  1.00  0.00    -0.059 N 
HETATM   10  C17 UNL     1      50.345   3.853 101.574  1.00  0.00     0.274 C 
HETATM   11 BR1  UNL     1      50.771   0.312 102.960  1.00  0.00     0.000 Br
ENDROOT
BRANCH   1  12
HETATM   12  C1  UNL     1      49.728   0.046 105.761  1.00  0.00     0.270 C 
HETATM   13  O2  UNL     1      50.560  -0.711 106.244  1.00  0.00    -0.264 OA
BRANCH  12  14
HETATM   14  C2  UNL     1      48.749   0.878 106.572  1.00  0.00     0.142 C 
BRANCH  14  15
HETATM   15  C3  UNL     1      49.464   1.599 107.709  1.00  0.00    -0.043 A 
HETATM   16  C5  UNL     1      49.544   1.088 109.014  1.00  0.00     0.008 A 
HETATM   17  C6  UNL     1      50.234   1.781 110.011  1.00  0.00     0.001 A 
HETATM   18  C7  UNL     1      50.851   2.995 109.722  1.00  0.00     0.000 A 
HETATM   19  C8  UNL     1      50.778   3.522 108.436  1.00  0.00     0.001 A 
HETATM   20  C9  UNL     1      50.089   2.830 107.437  1.00  0.00     0.008 A 
ENDBRANCH  14  15
BRANCH  14  21
HETATM   21  C4  UNL     1      47.571  -0.037 106.937  1.00  0.00     0.183 C 
BRANCH  21  22
HETATM   22  O3  UNL     1      47.586  -1.257 106.207  1.00  0.00    -0.400 OA
HETATM   23  H4  UNL     1      46.738  -1.716 106.349  1.00  0.00     0.209 HD
ENDBRANCH  21  22
ENDBRANCH  14  21
ENDBRANCH  12  14
ENDBRANCH   1  12
BRANCH   9  24
HETATM   24  C18 UNL     1      51.498   2.497  99.864  1.00  0.00     0.183 C 
HETATM   25  C19 UNL     1      50.630   3.265  98.861  1.00  0.00     0.040 C 
HETATM   26  C20 UNL     1      52.929   3.026  99.829  1.00  0.00     0.040 C 
ENDBRANCH   9  24
TORSDOF 7
ENDMDL
