MODEL 1
REMARK VINA RESULT:      -7.9      0.000      0.000
REMARK  4 active torsions:
REMARK  status: ('A' for Active; 'I' for Inactive)
REMARK    1  A    between atoms: C8_9  and  C9_11 
REMARK    2  A    between atoms: O3_15  and  C12_16 
REMARK    3  A    between atoms: C13_17  and  O4_22 
REMARK    4  A    between atoms: C17_21  and  O5_24 
ROOT
HETATM    1  C9  UNL     1      48.340   0.418 106.387  1.00  0.00     0.148 A 
HETATM    2  N1  UNL     1      47.196  -0.136 105.853  1.00  0.00    -0.417 N 
HETATM    3  C10 UNL     1      47.189  -1.080 104.834  1.00  0.00     0.140 A 
HETATM    4  C11 UNL     1      47.602  -0.457 103.484  1.00  0.00     0.195 A 
HETATM    5  O3  UNL     1      48.844   0.069 103.544  1.00  0.00    -0.344 OA
HETATM    6 CL1  UNL     1      48.305  -0.709 105.102  1.00  0.00    -0.145 Cl
HETATM    7  H10 UNL     1      46.284   0.111 106.294  1.00  0.00     0.153 HD
HETATM    8  H24 UNL     1      49.365  -0.054 104.495  1.00  0.00     0.145 HD
ENDROOT
BRANCH   1   9
HETATM    9  C8  UNL     1      49.200  -0.409 107.288  1.00  0.00     0.170 C 
HETATM   10  C7  UNL     1      48.507  -0.980 108.458  1.00  0.00     0.209 C 
HETATM   11  O1  UNL     1      48.851  -0.410 109.680  1.00  0.00    -0.346 OA
HETATM   12  C4  UNL     1      49.591   0.746 109.773  1.00  0.00     0.102 A 
HETATM   13  C3  UNL     1      49.582   1.599 110.854  1.00  0.00     0.039 A 
HETATM   14  C5  UNL     1      50.423   1.106 108.700  1.00  0.00     0.102 A 
HETATM   15  C2  UNL     1      50.347   2.746 110.884  1.00  0.00     0.003 A 
HETATM   16  C1  UNL     1      51.161   3.097 109.832  1.00  0.00     0.003 A 
HETATM   17  C6  UNL     1      51.186   2.247 108.722  1.00  0.00     0.039 A 
HETATM   18  O2  UNL     1      50.403   0.224 107.640  1.00  0.00    -0.339 OA
ENDBRANCH   1   9
BRANCH   5  19
HETATM   19  C12 UNL     1      49.694   0.700 102.727  1.00  0.00     0.135 A 
HETATM   20  C13 UNL     1      50.066   2.002 102.965  1.00  0.00     0.104 A 
HETATM   21  C14 UNL     1      50.944   2.685 102.135  1.00  0.00     0.040 A 
HETATM   22  C15 UNL     1      51.465   2.041 101.032  1.00  0.00     0.006 A 
HETATM   23  C16 UNL     1      51.099   0.710 100.772  1.00  0.00     0.040 A 
HETATM   24  C17 UNL     1      50.229   0.049 101.603  1.00  0.00     0.104 A 
BRANCH  20  25
HETATM   25  O4  UNL     1      49.532   2.637 104.077  1.00  0.00    -0.353 OA
HETATM   26  C18 UNL     1      50.423   3.136 105.085  1.00  0.00     0.210 C 
ENDBRANCH  20  25
BRANCH  24  27
HETATM   27  O5  UNL     1      49.866  -1.252 101.355  1.00  0.00    -0.353 OA
HETATM   28  C19 UNL     1      48.978  -1.718 100.382  1.00  0.00     0.210 C 
ENDBRANCH  24  27
ENDBRANCH   5  19
TORSDOF 4
ENDMDL
