MODEL 1
REMARK VINA RESULT:      -7.9      0.000      0.000
REMARK  11 active torsions:
REMARK  status: ('A' for Active; 'I' for Inactive)
REMARK    1  A    between atoms: C2_2  and  C13_15 
REMARK    2  A    between atoms: C4_4  and  C8_8 
REMARK    3  A    between atoms: C5_5  and  O1_10 
REMARK    4  A    between atoms: O1_10  and  C10_11 
REMARK    5  A    between atoms: C10_11  and  C11_12 
REMARK    6  A    between atoms: C11_12  and  C12_13 
REMARK    7  A    between atoms: C11_12  and  O5_33 
REMARK    8  A    between atoms: C12_13  and  O2_14 
REMARK    9  A    between atoms: C14_17  and  C15_20 
REMARK   10  A    between atoms: C17_22  and  C20_26 
REMARK   11  A    between atoms: C18_24  and  O4_27 
ROOT
HETATM    1  C13 UNL     1      48.899  -0.383 104.062  1.00  0.00     0.189 A 
HETATM    2  N1  UNL     1      48.816   0.354 105.225  1.00  0.00    -0.199 NA
HETATM    3  C14 UNL     1      49.683   1.320 105.017  1.00  0.00     0.207 A 
HETATM    4  O3  UNL     1      50.295   1.235 103.801  1.00  0.00    -0.190 OA
HETATM    5  N2  UNL     1      49.774   0.108 103.170  1.00  0.00    -0.105 NA
ENDROOT
BRANCH   1   6
HETATM    6  C2  UNL     1      48.095  -1.584 103.844  1.00  0.00     0.015 A 
HETATM    7  C1  UNL     1      47.556  -2.279 104.936  1.00  0.00     0.025 A 
HETATM    8  C6  UNL     1      46.793  -3.442 104.753  1.00  0.00    -0.027 A 
HETATM    9  C5  UNL     1      46.523  -3.877 103.444  1.00  0.00     0.081 A 
HETATM   10  C7  UNL     1      46.260  -4.169 105.955  1.00  0.00     0.051 C 
HETATM   11  C4  UNL     1      47.078  -3.222 102.332  1.00  0.00    -0.024 A 
HETATM   12  C3  UNL     1      47.857  -2.072 102.550  1.00  0.00     0.025 A 
BRANCH   9  13
HETATM   13  O1  UNL     1      45.778  -5.014 103.262  1.00  0.00    -0.347 OA
BRANCH  13  14
HETATM   14  C10 UNL     1      44.375  -4.726 103.402  1.00  0.00     0.209 C 
BRANCH  14  15
HETATM   15  C11 UNL     1      43.681  -5.074 102.084  1.00  0.00     0.166 C 
BRANCH  15  16
HETATM   16  C12 UNL     1      43.038  -3.855 101.417  1.00  0.00     0.198 C 
BRANCH  16  17
HETATM   17  O2  UNL     1      43.470  -2.668 102.084  1.00  0.00    -0.398 OA
HETATM   18  H16 UNL     1      42.828  -1.974 101.830  1.00  0.00     0.209 HD
ENDBRANCH  16  17
ENDBRANCH  15  16
BRANCH  15  19
HETATM   19  O5  UNL     1      42.647  -6.049 102.317  1.00  0.00    -0.391 OA
HETATM   20  H31 UNL     1      42.583  -6.149 103.287  1.00  0.00     0.210 HD
ENDBRANCH  15  19
ENDBRANCH  14  15
ENDBRANCH  13  14
ENDBRANCH   9  13
BRANCH  11  21
HETATM   21  C8  UNL     1      46.888  -3.722 100.918  1.00  0.00     0.037 C 
HETATM   22  C9  UNL     1      47.810  -4.886 100.577  1.00  0.00     0.010 C 
ENDBRANCH  11  21
ENDBRANCH   1   6
BRANCH   3  23
HETATM   23  C15 UNL     1      50.061   2.430 105.882  1.00  0.00     0.025 A 
HETATM   24  C16 UNL     1      50.460   2.172 107.198  1.00  0.00     0.043 A 
HETATM   25  C17 UNL     1      50.823   3.229 108.029  1.00  0.00     0.042 A 
HETATM   26  N3  UNL     1      50.800   4.511 107.599  1.00  0.00    -0.229 NA
HETATM   27  C18 UNL     1      50.415   4.745 106.329  1.00  0.00     0.165 A 
HETATM   28  C19 UNL     1      50.039   3.753 105.442  1.00  0.00     0.074 A 
BRANCH  25  29
HETATM   29  C20 UNL     1      51.253   2.955 109.458  1.00  0.00     0.038 C 
HETATM   30  C22 UNL     1      50.122   3.132 110.472  1.00  0.00     0.011 C 
HETATM   31  C23 UNL     1      49.426   1.776 110.562  1.00  0.00     0.001 C 
HETATM   32  C24 UNL     1      50.426   0.740 110.051  1.00  0.00     0.001 C 
HETATM   33  C25 UNL     1      51.694   1.509 109.686  1.00  0.00     0.011 C 
ENDBRANCH  25  29
BRANCH  27  34
HETATM   34  O4  UNL     1      50.379   6.039 105.847  1.00  0.00    -0.339 OA
HETATM   35  C21 UNL     1      50.888   6.154 104.522  1.00  0.00     0.211 C 
ENDBRANCH  27  34
ENDBRANCH   3  23
TORSDOF 11
ENDMDL
