MODEL 1
REMARK VINA RESULT:      -7.0      0.000      0.000
REMARK  4 active torsions:
REMARK  status: ('A' for Active; 'I' for Inactive)
REMARK    1  A    between atoms: C5_5  and  S1_7 
REMARK    2  A    between atoms: S1_7  and  C7_8 
REMARK    3  A    between atoms: C13_16  and  N3_18 
REMARK       I    between atoms: N3_18  and  C14_19 
REMARK    4  A    between atoms: C14_19  and  O3_21 
ROOT
HETATM    1  C7  UNL     1      49.931   1.133 104.123  1.00  0.00     0.038 A 
HETATM    2  C8  UNL     1      51.109   0.417 103.867  1.00  0.00     0.024 A 
HETATM    3  C9  UNL     1      51.954   0.767 102.804  1.00  0.00     0.036 A 
HETATM    4  C10 UNL     1      51.605   1.860 101.998  1.00  0.00     0.103 A 
HETATM    5  C11 UNL     1      50.440   2.564 102.278  1.00  0.00     0.080 A 
HETATM    6  C12 UNL     1      49.579   2.238 103.330  1.00  0.00     0.054 A 
HETATM    7  N1  UNL     1      52.256   2.396 100.913  1.00  0.00    -0.062 NA
HETATM    8  C13 UNL     1      51.514   3.409 100.528  1.00  0.00     0.710 A 
HETATM    9  N2  UNL     1      50.407   3.547 101.327  1.00  0.00    -0.187 N 
HETATM   10  H9  UNL     1      49.704   4.266 101.209  1.00  0.00     0.184 HD
ENDROOT
BRANCH   1  11
HETATM   11  S1  UNL     1      48.880   0.636 105.520  1.00  0.00     0.085 S 
HETATM   12  O1  UNL     1      49.260  -0.787 105.818  1.00  0.00    -0.247 OA
BRANCH  11  13
HETATM   13  C5  UNL     1      49.796   1.645 106.718  1.00  0.00     0.036 A 
HETATM   14  C4  UNL     1      50.159   1.094 107.954  1.00  0.00     0.021 A 
HETATM   15  C3  UNL     1      50.871   1.856 108.883  1.00  0.00     0.001 A 
HETATM   16  C2  UNL     1      51.233   3.168 108.577  1.00  0.00     0.000 A 
HETATM   17  C1  UNL     1      50.888   3.718 107.343  1.00  0.00     0.001 A 
HETATM   18  C6  UNL     1      50.175   2.958 106.415  1.00  0.00     0.021 A 
ENDBRANCH  11  13
ENDBRANCH   1  11
BRANCH   8  19
HETATM   19  N3  UNL     1      51.806   4.222  99.469  1.00  0.00    -0.133 N 
HETATM   20  C14 UNL     1      51.620   5.572  99.491  1.00  0.00     0.378 C 
HETATM   21  O2  UNL     1      51.178   6.224 100.430  1.00  0.00    -0.238 OA
HETATM   22  H10 UNL     1      52.177   3.791  98.638  1.00  0.00     0.190 HD
BRANCH  20  23
HETATM   23  O3  UNL     1      52.002   6.095  98.298  1.00  0.00    -0.308 OA
HETATM   24  C15 UNL     1      52.331   7.484  98.347  1.00  0.00     0.215 C 
ENDBRANCH  20  23
ENDBRANCH   8  19
TORSDOF 4
ENDMDL
