MODEL 1
REMARK VINA RESULT:      -8.1      0.000      0.000
REMARK  7 active torsions:
REMARK  status: ('A' for Active; 'I' for Inactive)
REMARK    1  A    between atoms: C2_2  and  C8_10 
REMARK    2  A    between atoms: C8_10  and  C9_11 
REMARK    3  A    between atoms: C10_12  and  C13_17 
REMARK    4  A    between atoms: C13_17  and  C14_18 
REMARK    5  A    between atoms: C16_20  and  O7_28 
REMARK    6  A    between atoms: C17_21  and  O6_26 
REMARK    7  A    between atoms: C18_22  and  O5_24 
ROOT
HETATM    1  C9  UNL     1      48.099  -0.940 105.607  1.00  0.00     0.028 C 
HETATM    2  C10 UNL     1      48.197   0.163 104.556  1.00  0.00     0.096 C 
HETATM    3  C11 UNL     1      46.736   0.465 104.324  1.00  0.00     0.263 C 
HETATM    4  O3  UNL     1      45.995   0.041 105.391  1.00  0.00    -0.321 OA
HETATM    5  C12 UNL     1      46.863  -0.521 106.374  1.00  0.00     0.184 C 
HETATM    6  O4  UNL     1      46.258   1.021 103.349  1.00  0.00    -0.265 OA
ENDROOT
BRANCH   2   7
HETATM    7  C13 UNL     1      48.909  -0.299 103.282  1.00  0.00     0.054 C 
BRANCH   7   8
HETATM    8  C14 UNL     1      49.655   0.836 102.613  1.00  0.00    -0.052 A 
HETATM    9  C15 UNL     1      49.929   0.787 101.238  1.00  0.00     0.047 A 
HETATM   10  C16 UNL     1      50.585   1.843 100.602  1.00  0.00     0.104 A 
HETATM   11  C17 UNL     1      50.998   2.945 101.371  1.00  0.00     0.135 A 
HETATM   12  C18 UNL     1      50.717   3.023 102.745  1.00  0.00     0.104 A 
HETATM   13  C19 UNL     1      50.048   1.960 103.358  1.00  0.00     0.047 A 
BRANCH  10  14
HETATM   14  O7  UNL     1      50.885   1.883  99.265  1.00  0.00    -0.353 OA
HETATM   15  C22 UNL     1      49.829   2.234  98.378  1.00  0.00     0.210 C 
ENDBRANCH  10  14
BRANCH  11  16
HETATM   16  O6  UNL     1      51.616   4.009 100.751  1.00  0.00    -0.351 OA
HETATM   17  C21 UNL     1      50.651   5.010 100.439  1.00  0.00     0.210 C 
ENDBRANCH  11  16
BRANCH  12  18
HETATM   18  O5  UNL     1      51.144   4.156 103.388  1.00  0.00    -0.353 OA
HETATM   19  C20 UNL     1      50.203   4.844 104.199  1.00  0.00     0.210 C 
ENDBRANCH  12  18
ENDBRANCH   7   8
ENDBRANCH   2   7
BRANCH   1  20
HETATM   20  C8  UNL     1      49.354  -1.058 106.477  1.00  0.00     0.046 C 
BRANCH  20  21
HETATM   21  C2  UNL     1      49.585   0.164 107.332  1.00  0.00    -0.055 A 
HETATM   22  C1  UNL     1      49.816   1.421 106.727  1.00  0.00     0.010 A 
HETATM   23  C6  UNL     1      50.046   2.562 107.502  1.00  0.00     0.040 A 
HETATM   24  C5  UNL     1      50.040   2.418 108.871  1.00  0.00     0.105 A 
HETATM   25  C4  UNL     1      49.816   1.201 109.469  1.00  0.00     0.105 A 
HETATM   26  O2  UNL     1      50.246   3.411 109.777  1.00  0.00    -0.323 OA
HETATM   27  C3  UNL     1      49.585   0.058 108.731  1.00  0.00     0.047 A 
HETATM   28  O1  UNL     1      49.853   1.275 110.826  1.00  0.00    -0.323 OA
HETATM   29  C7  UNL     1      50.123   2.680 111.014  1.00  0.00     0.352 A 
ENDBRANCH  20  21
ENDBRANCH   1  20
TORSDOF 7
ENDMDL
