MODEL 1
REMARK VINA RESULT:      -7.4      0.000      0.000
REMARK  13 active torsions:
REMARK  status: ('A' for Active; 'I' for Inactive)
REMARK    1  A    between atoms: C2_2  and  C15_16 
REMARK    2  A    between atoms: C3_4  and  C6_7 
REMARK    3  A    between atoms: C6_7  and  C7_8 
REMARK    4  A    between atoms: C7_8  and  C8_9 
REMARK    5  A    between atoms: C8_9  and  C9_10 
REMARK    6  A    between atoms: C9_10  and  C10_11 
REMARK    7  A    between atoms: C10_11  and  C11_12 
REMARK    8  A    between atoms: C16_17  and  O3_24 
REMARK    9  A    between atoms: C17_18  and  C21_25 
REMARK   10  A    between atoms: C22_26  and  O4_30 
REMARK   11  A    between atoms: C23_27  and  O5_31 
REMARK   12  A    between atoms: C24_28  and  O6_32 
REMARK   13  A    between atoms: C25_29  and  O7_33 
ROOT
HETATM    1  C15 UNL     1      48.848  -0.117 107.651  1.00  0.00     0.072 C 
HETATM    2  C16 UNL     1      48.755   0.026 106.311  1.00  0.00     0.088 C 
HETATM    3  C17 UNL     1      47.943  -0.838 105.470  1.00  0.00     0.001 C 
HETATM    4  C18 UNL     1      47.405  -1.928 106.041  1.00  0.00     0.104 C 
HETATM    5  N1  UNL     1      47.532  -2.179 107.394  1.00  0.00    -0.328 N 
HETATM    6  C19 UNL     1      48.184  -1.310 108.269  1.00  0.00     0.258 C 
HETATM    7  O2  UNL     1      48.236  -1.518 109.483  1.00  0.00    -0.267 OA
HETATM    8  C20 UNL     1      46.873  -3.365 107.927  1.00  0.00     0.159 C 
ENDROOT
BRANCH   1   9
HETATM    9  C2  UNL     1      49.587   0.899 108.494  1.00  0.00     0.163 C 
HETATM   10  C1  UNL     1      51.096   0.739 108.722  1.00  0.00     0.037 C 
HETATM   11  C5  UNL     1      51.631   1.805 109.680  1.00  0.00     0.005 C 
HETATM   12  C4  UNL     1      50.750   3.048 109.714  1.00  0.00     0.032 C 
HETATM   13  C3  UNL     1      50.056   3.303 108.375  1.00  0.00     0.122 C 
HETATM   14  O1  UNL     1      49.203   2.207 108.011  1.00  0.00    -0.376 OA
BRANCH  13  15
HETATM   15  C6  UNL     1      50.977   3.627 107.182  1.00  0.00     0.032 C 
BRANCH  15  16
HETATM   16  C7  UNL     1      50.457   4.742 106.268  1.00  0.00     0.007 C 
BRANCH  16  17
HETATM   17  C8  UNL     1      50.407   4.339 104.776  1.00  0.00    -0.018 C 
HETATM   18  C13 UNL     1      50.500   5.558 103.847  1.00  0.00     0.010 C 
BRANCH  17  19
HETATM   19  C9  UNL     1      51.533   3.342 104.406  1.00  0.00     0.008 C 
BRANCH  19  20
HETATM   20  C10 UNL     1      51.469   2.731 102.988  1.00  0.00    -0.019 C 
HETATM   21  C14 UNL     1      52.442   1.559 102.814  1.00  0.00     0.010 C 
BRANCH  20  22
HETATM   22  C11 UNL     1      50.028   2.326 102.607  1.00  0.00    -0.000 C 
HETATM   23  C12 UNL     1      49.497   2.920 101.309  1.00  0.00     0.005 C 
ENDBRANCH  20  22
ENDBRANCH  19  20
ENDBRANCH  17  19
ENDBRANCH  16  17
ENDBRANCH  15  16
ENDBRANCH  13  15
ENDBRANCH   1   9
BRANCH   2  24
HETATM   24  O3  UNL     1      49.470   0.991 105.624  1.00  0.00    -0.359 OA
HETATM   25  H32 UNL     1      49.490   0.708 104.686  1.00  0.00     0.217 HD
ENDBRANCH   2  24
BRANCH   3  26
HETATM   26  C21 UNL     1      47.795  -0.466 104.004  1.00  0.00     0.085 C 
HETATM   27  C22 UNL     1      47.426  -1.560 102.977  1.00  0.00     0.160 C 
HETATM   28  C23 UNL     1      47.137  -0.750 101.696  1.00  0.00     0.178 C 
HETATM   29  C24 UNL     1      46.681   0.646 102.176  1.00  0.00     0.178 C 
HETATM   30  C25 UNL     1      46.700   0.577 103.713  1.00  0.00     0.160 C 
BRANCH  27  31
HETATM   31  O4  UNL     1      46.238  -2.302 103.293  1.00  0.00    -0.392 OA
HETATM   32  H38 UNL     1      45.528  -1.642 103.464  1.00  0.00     0.210 HD
ENDBRANCH  27  31
BRANCH  28  33
HETATM   33  O5  UNL     1      46.139  -1.362 100.876  1.00  0.00    -0.390 OA
HETATM   34  H39 UNL     1      46.274  -0.974  99.984  1.00  0.00     0.210 HD
ENDBRANCH  28  33
BRANCH  29  35
HETATM   35  O6  UNL     1      45.380   0.994 101.699  1.00  0.00    -0.390 OA
HETATM   36  H40 UNL     1      45.363   1.977 101.718  1.00  0.00     0.210 HD
ENDBRANCH  29  35
BRANCH  30  37
HETATM   37  O7  UNL     1      45.418   0.102 104.163  1.00  0.00    -0.392 OA
HETATM   38  H41 UNL     1      45.270  -0.715 103.636  1.00  0.00     0.210 HD
ENDBRANCH  30  37
ENDBRANCH   3  26
TORSDOF 13
ENDMDL
