MODEL 1
REMARK VINA RESULT:      -7.4      0.000      0.000
REMARK  5 active torsions:
REMARK  status: ('A' for Active; 'I' for Inactive)
REMARK    1  A    between atoms: C2_2  and  O1_7 
REMARK    2  A    between atoms: O1_7  and  C7_8 
REMARK    3  A    between atoms: N1_13  and  C15_17 
REMARK    4  A    between atoms: C17_19  and  O2_23 
REMARK    5  A    between atoms: O2_23  and  C21_24 
ROOT
HETATM    1  C15 UNL     1      47.547  -2.393 102.791  1.00  0.00     0.066 A 
HETATM    2  C16 UNL     1      47.563  -3.607 102.093  1.00  0.00     0.068 A 
HETATM    3  C17 UNL     1      47.844  -4.811 102.740  1.00  0.00     0.071 A 
HETATM    4  C18 UNL     1      48.133  -4.805 104.105  1.00  0.00     0.051 A 
HETATM    5  C19 UNL     1      48.157  -3.604 104.835  1.00  0.00     0.001 A 
HETATM    6  C20 UNL     1      47.860  -2.392 104.177  1.00  0.00     0.067 A 
HETATM    7  C23 UNL     1      48.493  -3.564 106.278  1.00  0.00    -0.051 C 
HETATM    8  C24 UNL     1      48.333  -2.394 106.927  1.00  0.00     0.011 C 
HETATM    9  C25 UNL     1      47.849  -1.111 106.292  1.00  0.00     0.042 C 
HETATM   10  N2  UNL     1      47.989  -1.163 104.845  1.00  0.00    -0.376 N 
HETATM   11  C26 UNL     1      48.707   0.062 106.788  1.00  0.00     0.042 C 
HETATM   12  C27 UNL     1      46.380  -0.866 106.660  1.00  0.00     0.042 C 
HETATM   13  C28 UNL     1      48.976  -4.796 106.983  1.00  0.00     0.049 C 
HETATM   14  H27 UNL     1      47.553  -0.409 104.317  1.00  0.00     0.161 HD
ENDROOT
BRANCH   1  15
HETATM   15  N1  UNL     1      47.246  -1.169 102.134  1.00  0.00    -0.331 N 
HETATM   16  C5  UNL     1      48.229  -0.334 101.538  1.00  0.00     0.046 A 
HETATM   17  C4  UNL     1      47.913   0.960 101.072  1.00  0.00    -0.001 A 
HETATM   18  C6  UNL     1      49.568  -0.761 101.437  1.00  0.00     0.033 A 
HETATM   19  C3  UNL     1      48.922   1.754 100.496  1.00  0.00     0.051 A 
HETATM   20  C9  UNL     1      46.538   1.473 101.234  1.00  0.00    -0.051 C 
HETATM   21  C2  UNL     1      50.238   1.302 100.381  1.00  0.00     0.069 A 
HETATM   22  C1  UNL     1      50.561   0.041 100.861  1.00  0.00     0.039 A 
HETATM   23  C10 UNL     1      45.588   0.596 101.594  1.00  0.00     0.011 C 
HETATM   24  C12 UNL     1      46.226   2.920 100.988  1.00  0.00     0.049 C 
HETATM   25  C11 UNL     1      45.806  -0.887 101.838  1.00  0.00     0.049 C 
HETATM   26  C13 UNL     1      44.897  -1.272 103.024  1.00  0.00     0.043 C 
HETATM   27  C14 UNL     1      45.336  -1.629 100.574  1.00  0.00     0.043 C 
BRANCH  21  28
HETATM   28  O1  UNL     1      51.100   2.187  99.795  1.00  0.00    -0.351 OA
BRANCH  28  29
HETATM   29  C7  UNL     1      52.295   2.497 100.509  1.00  0.00     0.171 C 
HETATM   30  C8  UNL     1      53.304   3.048  99.517  1.00  0.00     0.034 C 
ENDBRANCH  28  29
ENDBRANCH  21  28
ENDBRANCH   1  15
BRANCH   3  31
HETATM   31  O2  UNL     1      47.816  -5.907 101.921  1.00  0.00    -0.351 OA
BRANCH  31  32
HETATM   32  C21 UNL     1      48.524  -7.083 102.308  1.00  0.00     0.171 C 
HETATM   33  C22 UNL     1      49.980  -7.003 101.885  1.00  0.00     0.034 C 
ENDBRANCH  31  32
ENDBRANCH   3  31
TORSDOF 5
ENDMDL
