MODEL 1
REMARK VINA RESULT:      -7.4      0.000      0.000
REMARK  6 active torsions:
REMARK  status: ('A' for Active; 'I' for Inactive)
REMARK    1  A    between atoms: C1_1  and  O1_7 
REMARK    2  A    between atoms: C2_2  and  O2_9 
REMARK    3  A    between atoms: N1_13  and  C12_15 
REMARK    4  A    between atoms: C12_15  and  C13_16 
REMARK    5  A    between atoms: C13_16  and  C15_18 
REMARK    6  A    between atoms: C15_18  and  C16_19 
ROOT
HETATM    1  C1  UNL     1      47.217  -1.379 104.919  1.00  0.00     0.102 A 
HETATM    2  C2  UNL     1      47.485  -2.034 106.137  1.00  0.00     0.101 A 
HETATM    3  C3  UNL     1      48.642  -1.735 106.799  1.00  0.00     0.040 A 
HETATM    4  C4  UNL     1      49.547  -0.800 106.290  1.00  0.00     0.010 A 
HETATM    5  C5  UNL     1      49.317  -0.147 105.114  1.00  0.00    -0.053 A 
HETATM    6  C6  UNL     1      48.129  -0.475 104.464  1.00  0.00     0.046 A 
HETATM    7  C9  UNL     1      50.272   0.842 104.571  1.00  0.00     0.073 C 
HETATM    8  C10 UNL     1      50.084   2.211 105.196  1.00  0.00     0.221 C 
HETATM    9  N1  UNL     1      50.306   2.171 106.617  1.00  0.00     0.092 N 
HETATM   10  C11 UNL     1      50.999   3.177 104.499  1.00  0.00     0.043 C 
HETATM   11 CL1  UNL     1      48.833   0.991 106.715  1.00  0.00    -0.145 Cl
HETATM   12  H13 UNL     1      51.240   1.738 106.828  1.00  0.00     0.316 HD
HETATM   13  H32 UNL     1      49.221   2.042 107.508  1.00  0.00     0.145 HD
ENDROOT
BRANCH   9  14
HETATM   14  C12 UNL     1      50.152   3.420 107.278  1.00  0.00     0.217 C 
HETATM   15  C14 UNL     1      50.581   4.595 106.405  1.00  0.00     0.042 C 
BRANCH  14  16
HETATM   16  C13 UNL     1      51.015   3.522 108.540  1.00  0.00     0.035 C 
BRANCH  16  17
HETATM   17  C15 UNL     1      51.517   2.173 108.949  1.00  0.00     0.006 C 
BRANCH  17  18
HETATM   18  C16 UNL     1      50.865   1.748 110.234  1.00  0.00    -0.023 C 
HETATM   19  C17 UNL     1      50.242   2.924 110.909  1.00  0.00     0.009 C 
HETATM   20  C18 UNL     1      49.921   0.598 109.993  1.00  0.00     0.009 C 
ENDBRANCH  17  18
ENDBRANCH  16  17
ENDBRANCH  14  16
ENDBRANCH   9  14
BRANCH   2  21
HETATM   21  O2  UNL     1      46.538  -2.941 106.570  1.00  0.00    -0.353 OA
HETATM   22  C8  UNL     1      46.773  -4.294 106.732  1.00  0.00     0.210 C 
ENDBRANCH   2  21
BRANCH   1  23
HETATM   23  O1  UNL     1      46.039  -1.686 104.241  1.00  0.00    -0.353 OA
HETATM   24  C7  UNL     1      45.359  -0.618 103.609  1.00  0.00     0.210 C 
ENDBRANCH   1  23
TORSDOF 6
ENDMDL
