MODEL 1
REMARK VINA RESULT:      -8.2      0.000      0.000
REMARK  1 active torsions:
REMARK  status: ('A' for Active; 'I' for Inactive)
REMARK    1  A    between atoms: C5_6  and  N3_8 
ROOT
HETATM    1  C1  UNL     1      49.373   0.622 107.888  1.00  0.00     0.087 A 
HETATM    2  C2  UNL     1      49.853   1.384 106.805  1.00  0.00     0.061 A 
HETATM    3  N1  UNL     1      49.674   0.992 105.455  1.00  0.00    -0.354 N 
HETATM    4  C3  UNL     1      48.423   0.541 104.982  1.00  0.00     0.046 A 
HETATM    5  C4  UNL     1      47.638  -0.396 105.666  1.00  0.00     0.036 A 
HETATM    6  C5  UNL     1      48.158  -1.180 106.835  1.00  0.00     0.139 C 
HETATM    7  N2  UNL     1      48.886  -0.689 107.799  1.00  0.00    -0.228 NA
HETATM    8  C6  UNL     1      47.909   1.112 103.802  1.00  0.00     0.030 A 
HETATM    9  C7  UNL     1      46.630   0.793 103.339  1.00  0.00     0.002 A 
HETATM   10  C8  UNL     1      45.838  -0.099 104.052  1.00  0.00     0.001 A 
HETATM   11  C9  UNL     1      46.340  -0.692 105.209  1.00  0.00     0.017 A 
HETATM   12  C10 UNL     1      49.523   1.120 109.190  1.00  0.00     0.057 A 
HETATM   13  C11 UNL     1      50.131   2.350 109.421  1.00  0.00     0.036 A 
HETATM   14  C12 UNL     1      50.618   3.101 108.360  1.00  0.00     0.026 A 
HETATM   15  C13 UNL     1      50.483   2.619 107.059  1.00  0.00     0.033 A 
HETATM   16 CL1  UNL     1      50.297   2.936 111.031  1.00  0.00    -0.084 Cl
HETATM   17  H1  UNL     1      50.130   1.624 104.808  1.00  0.00     0.166 HD
ENDROOT
BRANCH   6  18
HETATM   18  N3  UNL     1      47.817  -2.539 106.917  1.00  0.00    -0.362 N 
HETATM   19  C14 UNL     1      48.430  -3.525 105.999  1.00  0.00     0.154 C 
HETATM   20  C15 UNL     1      48.983  -4.747 106.761  1.00  0.00     0.291 C 
HETATM   21  N4  UNL     1      47.950  -5.485 107.520  1.00  0.00     0.087 N 
HETATM   22  C16 UNL     1      46.945  -4.559 108.088  1.00  0.00     0.291 C 
HETATM   23  C18 UNL     1      48.570  -6.310 108.554  1.00  0.00     0.310 C 
HETATM   24  C17 UNL     1      47.411  -3.094 108.226  1.00  0.00     0.154 C 
ENDBRANCH   6  18
TORSDOF 1
ENDMDL
