MODEL 1
REMARK VINA RESULT:      -8.5      0.000      0.000
REMARK  6 active torsions:
REMARK  status: ('A' for Active; 'I' for Inactive)
REMARK    1  A    between atoms: C4_4  and  C7_7 
REMARK    2  A    between atoms: C7_7  and  N1_8 
REMARK    3  A    between atoms: N2_12  and  C21_27 
REMARK    4  A    between atoms: C12_16  and  C13_17 
REMARK    5  A    between atoms: C16_20  and  O4_25 
REMARK    6  A    between atoms: C21_27  and  C22_28 
ROOT
HETATM    1  N1  UNL     1      46.361  -1.557 104.772  1.00  0.00    -0.261 N 
HETATM    2  C8  UNL     1      47.133  -0.893 105.706  1.00  0.00     0.267 C 
HETATM    3  C9  UNL     1      48.244  -1.688 106.264  1.00  0.00     0.101 C 
HETATM    4  C10 UNL     1      48.198  -3.164 106.183  1.00  0.00     0.267 C 
HETATM    5  N2  UNL     1      47.249  -3.679 105.317  1.00  0.00    -0.261 N 
HETATM    6  C11 UNL     1      46.345  -2.928 104.579  1.00  0.00     0.335 C 
HETATM    7  O1  UNL     1      45.541  -3.460 103.809  1.00  0.00    -0.246 OA
HETATM    8  O2  UNL     1      46.902   0.258 106.074  1.00  0.00    -0.267 OA
HETATM    9  C12 UNL     1      49.349  -1.143 106.815  1.00  0.00     0.035 C 
HETATM   10  O3  UNL     1      48.965  -3.860 106.846  1.00  0.00    -0.267 OA
ENDROOT
BRANCH   9  11
HETATM   11  C13 UNL     1      49.662   0.292 106.911  1.00  0.00    -0.023 A 
HETATM   12  C14 UNL     1      49.654   0.933 108.171  1.00  0.00    -0.049 A 
HETATM   13  C15 UNL     1      49.929   2.307 108.248  1.00  0.00     0.044 A 
HETATM   14  C20 UNL     1      49.317   0.187 109.435  1.00  0.00     0.049 C 
HETATM   15  C16 UNL     1      50.221   3.024 107.093  1.00  0.00     0.066 A 
HETATM   16  C17 UNL     1      50.249   2.399 105.853  1.00  0.00     0.044 A 
HETATM   17  C18 UNL     1      49.978   1.027 105.744  1.00  0.00    -0.049 A 
HETATM   18  C19 UNL     1      50.012   0.390 104.379  1.00  0.00     0.049 C 
BRANCH  15  19
HETATM   19  O4  UNL     1      50.488   4.360 107.136  1.00  0.00    -0.361 OA
HETATM   20  H14 UNL     1      50.028   4.790 106.397  1.00  0.00     0.217 HD
ENDBRANCH  15  19
ENDBRANCH   9  11
BRANCH   1  21
HETATM   21  C7  UNL     1      45.446  -0.744 103.976  1.00  0.00     0.175 C 
BRANCH  21  22
HETATM   22  C4  UNL     1      46.205   0.034 102.921  1.00  0.00    -0.040 A 
HETATM   23  C3  UNL     1      46.195   1.437 102.927  1.00  0.00     0.009 A 
HETATM   24  C2  UNL     1      46.936   2.152 101.987  1.00  0.00     0.001 A 
HETATM   25  C1  UNL     1      47.700   1.476 101.037  1.00  0.00     0.000 A 
HETATM   26  C6  UNL     1      47.724   0.083 101.026  1.00  0.00     0.001 A 
HETATM   27  C5  UNL     1      46.980  -0.636 101.963  1.00  0.00     0.009 A 
ENDBRANCH  21  22
ENDBRANCH   1  21
BRANCH   5  28
HETATM   28  C21 UNL     1      47.246  -5.125 105.117  1.00  0.00     0.175 C 
BRANCH  28  29
HETATM   29  C22 UNL     1      48.323  -5.567 104.147  1.00  0.00    -0.040 A 
HETATM   30  C23 UNL     1      48.231  -5.250 102.784  1.00  0.00     0.009 A 
HETATM   31  C24 UNL     1      49.214  -5.676 101.888  1.00  0.00     0.001 A 
HETATM   32  C25 UNL     1      50.296  -6.425 102.344  1.00  0.00     0.000 A 
HETATM   33  C26 UNL     1      50.395  -6.754 103.693  1.00  0.00     0.001 A 
HETATM   34  C27 UNL     1      49.414  -6.329 104.590  1.00  0.00     0.009 A 
ENDBRANCH  28  29
ENDBRANCH   5  28
TORSDOF 6
ENDMDL
