MODEL 1
REMARK VINA RESULT:      -7.1      0.000      0.000
REMARK  8 active torsions:
REMARK  status: ('A' for Active; 'I' for Inactive)
REMARK    1  A    between atoms: C1_1  and  C7_7 
REMARK    2  A    between atoms: C7_7  and  O1_8 
REMARK    3  A    between atoms: O1_8  and  C8_9 
REMARK    4  A    between atoms: C9_12  and  C10_13 
REMARK    5  A    between atoms: C10_13  and  C11_14 
REMARK    6  A    between atoms: C11_14  and  C14_19 
REMARK    7  A    between atoms: C14_19  and  C15_20 
REMARK    8  A    between atoms: C15_20  and  N2_21 
ROOT
HETATM    1  C8  UNL     1      48.457   0.443 105.494  1.00  0.00     0.361 A 
HETATM    2  N1  UNL     1      49.631   0.865 104.932  1.00  0.00    -0.323 N 
HETATM    3  O2  UNL     1      47.455   0.144 104.797  1.00  0.00    -0.238 OA
HETATM    4  C9  UNL     1      49.916   1.092 103.480  1.00  0.00     0.186 A 
HETATM    5  C12 UNL     1      48.719   0.217 102.948  1.00  0.00     0.281 A 
HETATM    6  O3  UNL     1      49.002  -1.164 102.969  1.00  0.00    -0.325 OA
HETATM    7  O4  UNL     1      47.661   0.673 102.582  1.00  0.00    -0.263 OA
HETATM    8  C13 UNL     1      47.999  -2.099 102.599  1.00  0.00     0.213 C 
HETATM    9 CL1  UNL     1      49.119   0.379 104.088  1.00  0.00    -0.145 Cl
HETATM   10  H8  UNL     1      50.447   1.038 105.615  1.00  0.00     0.165 HD
HETATM   11  H23 UNL     1      48.539   0.262 105.332  1.00  0.00     0.145 HD
ENDROOT
BRANCH   1  12
HETATM   12  O1  UNL     1      48.245   0.315 106.924  1.00  0.00    -0.299 OA
BRANCH  12  13
HETATM   13  C7  UNL     1      49.500   0.073 107.605  1.00  0.00     0.219 C 
BRANCH  13  14
HETATM   14  C1  UNL     1      49.748   1.157 108.538  1.00  0.00    -0.034 A 
HETATM   15  C2  UNL     1      49.652   0.859 109.898  1.00  0.00     0.009 A 
HETATM   16  C3  UNL     1      50.027   1.776 110.829  1.00  0.00     0.001 A 
HETATM   17  C4  UNL     1      50.495   2.994 110.452  1.00  0.00     0.000 A 
HETATM   18  C5  UNL     1      50.588   3.310 109.093  1.00  0.00     0.001 A 
HETATM   19  C6  UNL     1      50.207   2.371 108.137  1.00  0.00     0.009 A 
ENDBRANCH  13  14
ENDBRANCH  12  13
ENDBRANCH   1  12
BRANCH   4  20
HETATM   20  C10 UNL     1      51.151   0.423 103.121  1.00  0.00     0.035 C 
BRANCH  20  21
HETATM   21  C11 UNL     1      52.256   1.084 102.417  1.00  0.00     0.004 C 
BRANCH  21  22
HETATM   22  C14 UNL     1      52.123   2.136 101.414  1.00  0.00     0.030 C 
BRANCH  22  23
HETATM   23  C15 UNL     1      51.390   1.785 100.152  1.00  0.00     0.267 C 
BRANCH  23  24
HETATM   24  N2  UNL     1      52.348   2.058  99.053  1.00  0.00     0.078 N 
HETATM   25  H21 UNL     1      53.291   1.692  99.273  1.00  0.00     0.312 HD
HETATM   26  H22 UNL     1      52.320   3.065  98.881  1.00  0.00     0.312 HD
ENDBRANCH  23  24
ENDBRANCH  22  23
ENDBRANCH  21  22
ENDBRANCH  20  21
ENDBRANCH   4  20
TORSDOF 8
ENDMDL
