MODEL 1
REMARK VINA RESULT:      -8.7      0.000      0.000
REMARK  6 active torsions:
REMARK  status: ('A' for Active; 'I' for Inactive)
REMARK    1  A    between atoms: N1_4  and  C15_23 
REMARK       I    between atoms: N2_6  and  C5_7 
REMARK    2  A    between atoms: C5_7  and  C6_8 
REMARK    3  A    between atoms: C6_8  and  N3_10 
REMARK       I    between atoms: N3_10  and  C7_11 
REMARK    4  A    between atoms: C7_11  and  C8_12 
REMARK    5  A    between atoms: C10_15  and  C14_19 
REMARK    6  A    between atoms: C15_23  and  C16_24 
ROOT
HETATM    1  C1  UNL     1      50.648   2.821 100.975  1.00  0.00     0.103 C 
HETATM    2  C2  UNL     1      52.186   2.619 100.770  1.00  0.00     0.046 C 
HETATM    3  C3  UNL     1      52.317   3.493  99.479  1.00  0.00     0.119 C 
HETATM    4  N1  UNL     1      51.489   4.610  99.747  1.00  0.00    -0.406 N 
HETATM    5  C4  UNL     1      50.589   4.301 100.837  1.00  0.00     0.142 C 
HETATM    6  N2  UNL     1      50.218   2.210 102.194  1.00  0.00    -0.353 N 
HETATM    7  C5  UNL     1      49.934   0.815 102.151  1.00  0.00     0.235 C 
HETATM    8  O1  UNL     1      50.107   0.256 100.997  1.00  0.00    -0.272 OA
HETATM    9 CL2  UNL     1      49.045   2.684 102.678  1.00  0.00    -0.145 Cl
HETATM   10  H8  UNL     1      50.082   2.691 103.114  1.00  0.00     0.163 HD
HETATM   11  H22 UNL     1      49.497   2.990 101.406  1.00  0.00     0.145 HD
ENDROOT
BRANCH   7  12
HETATM   12  C6  UNL     1      49.490  -0.077 103.181  1.00  0.00     0.225 C 
BRANCH  12  13
HETATM   13  N3  UNL     1      49.834   0.125 104.540  1.00  0.00    -0.348 N 
HETATM   14  C7  UNL     1      48.900   0.297 105.609  1.00  0.00     0.252 C 
HETATM   15  O2  UNL     1      47.678   0.269 105.223  1.00  0.00    -0.268 OA
HETATM   16  H11 UNL     1      50.867   0.166 104.820  1.00  0.00     0.163 HD
BRANCH  14  17
HETATM   17  C8  UNL     1      49.237   0.476 107.001  1.00  0.00     0.032 A 
HETATM   18  C9  UNL     1      49.890   1.643 107.337  1.00  0.00     0.033 A 
HETATM   19  C10 UNL     1      50.256   1.946 108.640  1.00  0.00     0.048 A 
HETATM   20  C11 UNL     1      49.951   1.027 109.622  1.00  0.00     0.016 A 
HETATM   21  C12 UNL     1      49.304  -0.151 109.354  1.00  0.00     0.002 A 
HETATM   22  C13 UNL     1      48.959  -0.399 108.024  1.00  0.00     0.017 A 
BRANCH  19  23
HETATM   23  C14 UNL     1      50.966   3.186 109.007  1.00  0.00     0.417 C 
HETATM   24  F1  UNL     1      52.309   3.023 108.601  1.00  0.00    -0.166 F 
HETATM   25  F2  UNL     1      50.960   3.459 110.369  1.00  0.00    -0.166 F 
HETATM   26  F3  UNL     1      50.496   4.233 108.258  1.00  0.00    -0.166 F 
ENDBRANCH  19  23
ENDBRANCH  14  17
ENDBRANCH  12  13
ENDBRANCH   7  12
BRANCH   4  27
HETATM   27  C15 UNL     1      51.083   5.469  98.751  1.00  0.00     0.155 C 
BRANCH  27  28
HETATM   28  C16 UNL     1      51.327   6.921  98.900  1.00  0.00    -0.041 A 
HETATM   29  C17 UNL     1      50.315   7.841  98.599  1.00  0.00     0.010 A 
HETATM   30  C18 UNL     1      50.536   9.199  98.731  1.00  0.00     0.024 A 
HETATM   31  C19 UNL     1      51.748   9.698  99.164  1.00  0.00     0.034 A 
HETATM   32  C20 UNL     1      52.739   8.793  99.460  1.00  0.00     0.024 A 
HETATM   33 CL1  UNL     1      52.039  11.418  99.333  1.00  0.00    -0.084 Cl
HETATM   34  C21 UNL     1      52.523   7.422  99.325  1.00  0.00     0.010 A 
ENDBRANCH  27  28
ENDBRANCH   4  27
TORSDOF 6
ENDMDL
