MODEL 1
REMARK VINA RESULT:      -6.4      0.000      0.000
REMARK  16 active torsions:
REMARK  status: ('A' for Active; 'I' for Inactive)
REMARK    1  A    between atoms: O1_1  and  C1_2 
REMARK    2  A    between atoms: C1_2  and  C2_3 
REMARK    3  A    between atoms: C2_3  and  C3_4 
REMARK    4  A    between atoms: C3_4  and  C4_5 
REMARK    5  A    between atoms: C4_5  and  C5_6 
REMARK    6  A    between atoms: C5_6  and  C6_7 
REMARK    7  A    between atoms: C6_7  and  C7_8 
REMARK    8  A    between atoms: C7_8  and  C8_9 
REMARK    9  A    between atoms: C8_9  and  C9_10 
REMARK   10  A    between atoms: C9_10  and  C10_11 
REMARK   11  A    between atoms: C9_10  and  O2_14 
REMARK   12  A    between atoms: C11_12  and  C12_13 
REMARK   13  A    between atoms: C13_16  and  C14_17 
REMARK   14  A    between atoms: C14_17  and  C15_18 
REMARK   15  A    between atoms: C15_18  and  C16_19 
REMARK   16  A    between atoms: C16_19  and  C17_20 
ROOT
HETATM    1  C9  UNL     1      50.064   4.415 105.743  1.00  0.00     0.141 C 
ENDROOT
BRANCH   1   2
HETATM    2  C8  UNL     1      50.409   4.157 104.272  1.00  0.00     0.036 C 
BRANCH   2   3
HETATM    3  C7  UNL     1      49.189   3.682 103.473  1.00  0.00     0.003 C 
BRANCH   3   4
HETATM    4  C6  UNL     1      48.895   2.187 103.641  1.00  0.00     0.000 C 
BRANCH   4   5
HETATM    5  C5  UNL     1      50.088   1.307 104.032  1.00  0.00     0.000 C 
BRANCH   5   6
HETATM    6  C4  UNL     1      50.414   0.228 102.999  1.00  0.00     0.001 C 
BRANCH   6   7
HETATM    7  C3  UNL     1      51.819   0.344 102.393  1.00  0.00     0.010 C 
BRANCH   7   8
HETATM    8  C2  UNL     1      52.333   1.777 102.253  1.00  0.00     0.110 C 
BRANCH   8   9
HETATM    9  C1  UNL     1      52.037   2.392 100.910  1.00  0.00     0.139 C 
HETATM   10  O3  UNL     1      52.006   3.577 100.625  1.00  0.00    -0.650 OA
BRANCH   9  11
HETATM   11  O1  UNL     1      51.755   1.458  99.980  1.00  0.00    -0.776 OA
HETATM   12  H1  UNL     1      52.538   0.870  99.990  1.00  0.00     0.167 HD
ENDBRANCH   9  11
ENDBRANCH   8   9
ENDBRANCH   7   8
ENDBRANCH   6   7
ENDBRANCH   5   6
ENDBRANCH   4   5
ENDBRANCH   3   4
ENDBRANCH   2   3
ENDBRANCH   1   2
BRANCH   1  13
HETATM   13  C10 UNL     1      50.912   3.577 106.659  1.00  0.00     0.004 C 
HETATM   14  C11 UNL     1      51.220   3.928 107.917  1.00  0.00    -0.002 C 
BRANCH  14  15
HETATM   15  C12 UNL     1      52.035   3.105 108.780  1.00  0.00    -0.004 C 
HETATM   16  C13 UNL     1      51.683   2.626 109.984  1.00  0.00    -0.027 C 
BRANCH  16  17
HETATM   17  C14 UNL     1      50.371   2.788 110.700  1.00  0.00     0.027 C 
BRANCH  17  18
HETATM   18  C15 UNL     1      49.434   1.588 110.525  1.00  0.00     0.004 C 
BRANCH  18  19
HETATM   19  C16 UNL     1      49.943   0.565 109.505  1.00  0.00    -0.000 C 
BRANCH  19  20
HETATM   20  C17 UNL     1      49.241   0.733 108.156  1.00  0.00    -0.005 C 
HETATM   21  C18 UNL     1      49.752  -0.271 107.133  1.00  0.00     0.005 C 
ENDBRANCH  19  20
ENDBRANCH  18  19
ENDBRANCH  17  18
ENDBRANCH  16  17
ENDBRANCH  14  15
ENDBRANCH   1  13
BRANCH   1  22
HETATM   22  O2  UNL     1      50.293   5.783 106.062  1.00  0.00    -0.392 OA
HETATM   23  H20 UNL     1      50.714   5.816 106.935  1.00  0.00     0.210 HD
ENDBRANCH   1  22
TORSDOF 16
ENDMDL
