MODEL 1
REMARK VINA RESULT:      -7.3      0.000      0.000
REMARK  9 active torsions:
REMARK  status: ('A' for Active; 'I' for Inactive)
REMARK    1  A    between atoms: C2_2  and  O7_24 
REMARK    2  A    between atoms: C4_4  and  C14_16 
REMARK    3  A    between atoms: C11_12  and  O6_23 
REMARK    4  A    between atoms: C12_13  and  O3_17 
REMARK    5  A    between atoms: C14_16  and  O4_19 
REMARK    6  A    between atoms: O4_19  and  C16_20 
REMARK    7  A    between atoms: O7_24  and  C18_25 
REMARK    8  A    between atoms: C18_25  and  C19_26 
REMARK    9  A    between atoms: C19_26  and  C20_28 
ROOT
HETATM    1  C1  UNL     1      50.140   3.547 105.443  1.00  0.00    -0.056 C 
HETATM    2  C2  UNL     1      50.291   2.067 105.707  1.00  0.00     0.161 C 
HETATM    3  C3  UNL     1      50.268   1.227 104.414  1.00  0.00     0.052 C 
HETATM    4  C4  UNL     1      49.223   1.678 103.333  1.00  0.00     0.027 C 
HETATM    5  C5  UNL     1      49.494   3.194 103.021  1.00  0.00     0.157 C 
HETATM    6  C6  UNL     1      49.815   4.033 104.231  1.00  0.00     0.010 C 
HETATM    7  C7  UNL     1      49.391   0.836 101.975  1.00  0.00     0.033 C 
HETATM    8  C8  UNL     1      50.780   1.156 101.459  1.00  0.00     0.121 A 
HETATM    9  C9  UNL     1      50.699   2.565 100.990  1.00  0.00     0.191 C 
HETATM   10  O1  UNL     1      50.608   3.419 102.137  1.00  0.00    -0.370 OA
HETATM   11  C10 UNL     1      50.407   4.456 106.609  1.00  0.00     0.046 C 
HETATM   12  C11 UNL     1      48.500   1.501 100.839  1.00  0.00     0.161 C 
HETATM   13  C12 UNL     1      49.415   2.545 100.139  1.00  0.00     0.179 C 
HETATM   14  C13 UNL     1      52.063   0.398 101.712  1.00  0.00     0.210 A 
HETATM   15  O2  UNL     1      51.326   0.245 100.494  1.00  0.00    -0.371 OA
HETATM   16  C15 UNL     1      49.114  -0.662 102.145  1.00  0.00     0.022 C 
ENDROOT
BRANCH   2  17
HETATM   17  O7  UNL     1      49.234   1.666 106.595  1.00  0.00    -0.311 OA
BRANCH  17  18
HETATM   18  C18 UNL     1      49.547   0.688 107.486  1.00  0.00     0.259 C 
HETATM   19  O8  UNL     1      49.082  -0.445 107.487  1.00  0.00    -0.265 OA
BRANCH  18  20
HETATM   20  C19 UNL     1      50.572   1.181 108.476  1.00  0.00     0.115 C 
BRANCH  20  21
HETATM   21  C20 UNL     1      49.955   2.130 109.508  1.00  0.00    -0.013 C 
HETATM   22  C21 UNL     1      49.397   1.366 110.709  1.00  0.00     0.010 C 
HETATM   23  C22 UNL     1      50.999   3.144 109.978  1.00  0.00     0.010 C 
ENDBRANCH  20  21
ENDBRANCH  18  20
ENDBRANCH  17  18
ENDBRANCH   2  17
BRANCH   4  24
HETATM   24  C14 UNL     1      47.781   1.441 103.903  1.00  0.00     0.192 C 
BRANCH  24  25
HETATM   25  O4  UNL     1      47.632   0.144 104.490  1.00  0.00    -0.321 OA
BRANCH  25  26
HETATM   26  C16 UNL     1      46.389  -0.149 104.954  1.00  0.00     0.254 C 
HETATM   27  C17 UNL     1      45.458  -0.445 103.818  1.00  0.00     0.126 C 
HETATM   28  O5  UNL     1      46.052  -0.147 106.129  1.00  0.00    -0.266 OA
ENDBRANCH  25  26
ENDBRANCH  24  25
ENDBRANCH   4  24
BRANCH  12  29
HETATM   29  O6  UNL     1      48.041   0.543  99.885  1.00  0.00    -0.392 OA
HETATM   30  H23 UNL     1      47.990   0.999  99.026  1.00  0.00     0.210 HD
ENDBRANCH  12  29
BRANCH  13  31
HETATM   31  O3  UNL     1      48.765   3.809 100.040  1.00  0.00    -0.390 OA
HETATM   32  H16 UNL     1      47.854   3.689 100.370  1.00  0.00     0.210 HD
ENDBRANCH  13  31
TORSDOF 9
ENDMDL
