MODEL 1
REMARK VINA RESULT:      -7.2      0.000      0.000
REMARK  7 active torsions:
REMARK  status: ('A' for Active; 'I' for Inactive)
REMARK    1  A    between atoms: C1_1  and  O3_13 
REMARK    2  A    between atoms: C7_7  and  O2_10 
REMARK    3  A    between atoms: O2_10  and  C8_11 
REMARK    4  A    between atoms: O3_13  and  C10_14 
REMARK    5  A    between atoms: C10_14  and  C11_15 
REMARK    6  A    between atoms: C11_15  and  C12_16 
REMARK    7  A    between atoms: N2_19  and  C17_22 
ROOT
HETATM    1  C10 UNL     1      46.138  -0.676 102.309  1.00  0.00     0.176 C 
ENDROOT
BRANCH   1   2
HETATM    2  O3  UNL     1      46.673   0.174 101.296  1.00  0.00    -0.351 OA
BRANCH   2   3
HETATM    3  C1  UNL     1      47.416   1.265 101.654  1.00  0.00     0.071 A 
HETATM    4  C2  UNL     1      47.024   2.276 102.539  1.00  0.00     0.038 A 
HETATM    5  C3  UNL     1      47.872   3.359 102.834  1.00  0.00     0.022 A 
HETATM    6  C4  UNL     1      49.131   3.409 102.218  1.00  0.00     0.055 A 
HETATM    7  C5  UNL     1      49.491   2.396 101.348  1.00  0.00     0.118 A 
HETATM    8  C7  UNL     1      50.257   4.258 102.209  1.00  0.00     0.204 A 
HETATM    9  C6  UNL     1      48.675   1.311 101.038  1.00  0.00     0.077 A 
HETATM   10  O1  UNL     1      50.739   2.633 100.863  1.00  0.00    -0.210 OA
HETATM   11  N1  UNL     1      51.230   3.816 101.405  1.00  0.00    -0.101 NA
BRANCH   8  12
HETATM   12  O2  UNL     1      50.375   5.406 102.918  1.00  0.00    -0.333 OA
BRANCH  12  13
HETATM   13  C8  UNL     1      51.029   5.293 104.182  1.00  0.00     0.173 C 
HETATM   14  C9  UNL     1      50.037   4.932 105.276  1.00  0.00     0.034 C 
ENDBRANCH  12  13
ENDBRANCH   8  12
ENDBRANCH   2   3
ENDBRANCH   1   2
BRANCH   1  15
HETATM   15  C11 UNL     1      47.162  -1.709 102.791  1.00  0.00     0.031 C 
BRANCH  15  16
HETATM   16  C12 UNL     1      47.774  -1.390 104.171  1.00  0.00    -0.010 C 
HETATM   17  C13 UNL     1      46.785  -0.602 105.036  1.00  0.00     0.019 C 
HETATM   18  C14 UNL     1      47.340  -0.385 106.448  1.00  0.00     0.097 C 
HETATM   19  N2  UNL     1      48.784  -0.105 106.435  1.00  0.00    -0.266 NA
HETATM   20  C15 UNL     1      49.329   0.401 105.175  1.00  0.00     0.097 C 
HETATM   21  C16 UNL     1      49.108  -0.629 104.060  1.00  0.00     0.019 C 
BRANCH  19  22
HETATM   22  C17 UNL     1      49.231   0.602 107.572  1.00  0.00     0.128 A 
HETATM   23  N3  UNL     1      49.255   0.022 108.792  1.00  0.00    -0.138 NA
HETATM   24  N4  UNL     1      49.686   0.707 109.910  1.00  0.00    -0.154 NA
HETATM   25  C18 UNL     1      50.081   1.988 109.804  1.00  0.00     0.053 A 
HETATM   26  C19 UNL     1      50.060   2.635 108.582  1.00  0.00     0.032 A 
HETATM   27  C21 UNL     1      50.527   2.689 111.046  1.00  0.00     0.072 C 
HETATM   28  C20 UNL     1      49.629   1.933 107.458  1.00  0.00     0.048 A 
ENDBRANCH  19  22
ENDBRANCH  15  16
ENDBRANCH   1  15
TORSDOF 7
ENDMDL
