MODEL 1
REMARK VINA RESULT:      -5.7      0.000      0.000
REMARK  14 active torsions:
REMARK  status: ('A' for Active; 'I' for Inactive)
REMARK    1  A    between atoms: C1_1  and  N1_2 
REMARK    2  A    between atoms: C1_1  and  C10_18 
REMARK    3  A    between atoms: C1_1  and  C12_22 
REMARK       I    between atoms: N1_2  and  C2_3 
REMARK    4  A    between atoms: C2_3  and  C3_4 
REMARK    5  A    between atoms: C3_4  and  N2_5 
REMARK       I    between atoms: N2_5  and  C4_6 
REMARK    6  A    between atoms: C4_6  and  C5_7 
REMARK    7  A    between atoms: C5_7  and  C6_8 
REMARK    8  A    between atoms: C5_7  and  N6_15 
REMARK    9  A    between atoms: C6_8  and  C7_9 
REMARK   10  A    between atoms: C7_9  and  C8_10 
REMARK   11  A    between atoms: C8_10  and  N3_11 
REMARK       I    between atoms: N3_11  and  C9_12 
REMARK       I    between atoms: C9_12  and  N5_14 
REMARK   12  A    between atoms: C10_18  and  C11_19 
REMARK   13  A    between atoms: C11_19  and  O3_20 
REMARK   14  A    between atoms: C12_22  and  O5_23 
ROOT
HETATM    1  N2  UNL     1      50.457   2.502 106.503  1.00  0.00    -0.350 N 
HETATM    2  C4  UNL     1      50.732   3.416 107.497  1.00  0.00     0.251 C 
HETATM    3  O1  UNL     1      50.662   4.632 107.323  1.00  0.00    -0.271 OA
HETATM    4  H5  UNL     1      50.852   1.574 106.609  1.00  0.00     0.163 HD
ENDROOT
BRANCH   1   5
HETATM    5  C3  UNL     1      50.281   2.945 105.131  1.00  0.00     0.225 C 
BRANCH   5   6
HETATM    6  C2  UNL     1      49.949   1.731 104.258  1.00  0.00     0.236 C 
HETATM    7  N1  UNL     1      49.707   2.031 102.933  1.00  0.00    -0.345 N 
HETATM    8  H2  UNL     1      50.226   2.827 102.572  1.00  0.00     0.163 HD
HETATM    9  O2  UNL     1      49.857   0.596 104.723  1.00  0.00    -0.272 OA
BRANCH   7  10
HETATM   10  C1  UNL     1      49.449   0.947 101.976  1.00  0.00     0.192 C 
BRANCH  10  11
HETATM   11  C10 UNL     1      48.073   1.082 101.331  1.00  0.00     0.146 C 
BRANCH  11  12
HETATM   12  C11 UNL     1      47.478   2.435 101.589  1.00  0.00     0.141 C 
HETATM   13  O4  UNL     1      46.689   2.755 102.460  1.00  0.00    -0.650 OA
BRANCH  12  14
HETATM   14  O3  UNL     1      47.925   3.349 100.706  1.00  0.00    -0.776 OA
HETATM   15  H21 UNL     1      48.537   3.912 101.228  1.00  0.00     0.167 HD
ENDBRANCH  12  14
ENDBRANCH  11  12
ENDBRANCH  10  11
BRANCH  10  16
HETATM   16  C12 UNL     1      50.504   1.009 100.876  1.00  0.00     0.164 C 
HETATM   17  O6  UNL     1      50.589   1.865 100.008  1.00  0.00    -0.648 OA
BRANCH  16  18
HETATM   18  O5  UNL     1      51.351  -0.039 100.892  1.00  0.00    -0.775 OA
HETATM   19  H22 UNL     1      50.786  -0.812 100.681  1.00  0.00     0.167 HD
ENDBRANCH  16  18
ENDBRANCH  10  16
ENDBRANCH   7  10
ENDBRANCH   5   6
ENDBRANCH   1   5
BRANCH   2  20
HETATM   20  C5  UNL     1      51.143   2.790 108.851  1.00  0.00     0.308 C 
BRANCH  20  21
HETATM   21  C6  UNL     1      50.107   3.113 109.936  1.00  0.00     0.047 C 
BRANCH  21  22
HETATM   22  C7  UNL     1      49.580   1.861 110.650  1.00  0.00     0.022 C 
BRANCH  22  23
HETATM   23  C8  UNL     1      50.230   0.580 110.127  1.00  0.00     0.122 C 
BRANCH  23  24
HETATM   24  N3  UNL     1      49.218  -0.425 109.847  1.00  0.00    -0.366 N 
HETATM   25  C9  UNL     1      48.741  -0.674 108.609  1.00  0.00     0.165 C 
HETATM   26  N4  UNL     1      49.220  -0.323 107.476  1.00  0.00    -0.274 NA
HETATM   27  N5  UNL     1      47.614  -1.410 108.650  1.00  0.00    -0.273 NA
HETATM   28  H14 UNL     1      50.078   0.211 107.615  1.00  0.00     0.189 HD
HETATM   29  H15 UNL     1      47.365  -1.679 107.703  1.00  0.00     0.127 HD
HETATM   30  H16 UNL     1      47.718  -2.236 109.225  1.00  0.00     0.127 HD
HETATM   31  H13 UNL     1      48.463  -0.413 110.524  1.00  0.00     0.162 HD
ENDBRANCH  23  24
ENDBRANCH  22  23
ENDBRANCH  21  22
ENDBRANCH  20  21
BRANCH  20  32
HETATM   32  N6  UNL     1      52.481   3.288 109.236  1.00  0.00     0.092 N 
HETATM   33  H17 UNL     1      53.149   2.531 109.061  1.00  0.00     0.313 HD
HETATM   34  H18 UNL     1      52.495   3.371 110.256  1.00  0.00     0.313 HD
ENDBRANCH  20  32
ENDBRANCH   2  20
TORSDOF 14
ENDMDL
