MODEL 1
REMARK VINA RESULT:      -7.9      0.000      0.000
REMARK  9 active torsions:
REMARK  status: ('A' for Active; 'I' for Inactive)
REMARK    1  A    between atoms: C2_2  and  O1_22 
REMARK    2  A    between atoms: C13_13  and  O5_32 
REMARK    3  A    between atoms: C17_17  and  C18_18 
REMARK    4  A    between atoms: C18_18  and  C20_20 
REMARK    5  A    between atoms: C20_20  and  C23_24 
REMARK    6  A    between atoms: C23_24  and  C24_25 
REMARK       I    between atoms: C24_25  and  N1_26 
REMARK    7  A    between atoms: N1_26  and  C25_28 
REMARK    8  A    between atoms: C25_28  and  C26_29 
REMARK    9  A    between atoms: C26_29  and  O4_31 
ROOT
HETATM    1  C1  UNL     1      48.390  -4.651 100.903  1.00  0.00     0.032 C 
HETATM    2  C2  UNL     1      48.612  -5.931 101.700  1.00  0.00     0.118 C 
HETATM    3  C3  UNL     1      48.514  -5.677 103.200  1.00  0.00     0.037 C 
HETATM    4  C4  UNL     1      47.189  -4.993 103.601  1.00  0.00    -0.004 C 
HETATM    5  C5  UNL     1      46.918  -3.681 102.791  1.00  0.00    -0.036 C 
HETATM    6  C6  UNL     1      47.063  -4.001 101.275  1.00  0.00     0.012 C 
HETATM    7  C7  UNL     1      47.153  -4.756 105.119  1.00  0.00     0.006 C 
HETATM    8  C8  UNL     1      48.092  -3.644 105.576  1.00  0.00     0.006 C 
HETATM    9  C9  UNL     1      47.858  -2.334 104.810  1.00  0.00    -0.005 C 
HETATM   10  C10 UNL     1      47.915  -2.556 103.268  1.00  0.00     0.001 C 
HETATM   11  C11 UNL     1      48.894  -1.267 105.198  1.00  0.00     0.001 C 
HETATM   12  C12 UNL     1      48.667   0.112 104.511  1.00  0.00    -0.010 C 
HETATM   13  C13 UNL     1      48.741  -0.104 102.979  1.00  0.00     0.127 C 
HETATM   14  C14 UNL     1      47.778  -1.213 102.499  1.00  0.00     0.038 C 
HETATM   15  C15 UNL     1      49.046  -0.919 106.672  1.00  0.00     0.006 C 
HETATM   16  C16 UNL     1      49.834   0.398 106.657  1.00  0.00     0.006 C 
HETATM   17  C17 UNL     1      49.831   0.913 105.186  1.00  0.00     0.000 C 
HETATM   18  C21 UNL     1      45.444  -3.243 103.000  1.00  0.00     0.016 C 
HETATM   19  C22 UNL     1      47.284   0.719 104.849  1.00  0.00     0.018 C 
ENDROOT
BRANCH  17  20
HETATM   20  C18 UNL     1      49.967   2.463 105.095  1.00  0.00    -0.013 C 
HETATM   21  C19 UNL     1      51.197   2.995 104.344  1.00  0.00     0.010 C 
BRANCH  20  22
HETATM   22  C20 UNL     1      49.874   3.204 106.449  1.00  0.00     0.014 C 
BRANCH  22  23
HETATM   23  C23 UNL     1      51.192   3.758 106.992  1.00  0.00     0.103 C 
BRANCH  23  24
HETATM   24  C24 UNL     1      51.447   3.421 108.451  1.00  0.00     0.218 C 
HETATM   25  N1  UNL     1      50.281   3.352 109.189  1.00  0.00    -0.351 N 
HETATM   26  H39 UNL     1      49.423   3.206 108.669  1.00  0.00     0.163 HD
HETATM   27  O2  UNL     1      52.557   3.231 108.934  1.00  0.00    -0.274 OA
BRANCH  25  28
HETATM   28  C25 UNL     1      50.309   2.866 110.557  1.00  0.00     0.232 C 
BRANCH  28  29
HETATM   29  C26 UNL     1      50.118   1.358 110.594  1.00  0.00     0.158 C 
HETATM   30  O3  UNL     1      50.829   0.512 110.070  1.00  0.00    -0.649 OA
BRANCH  29  31
HETATM   31  O4  UNL     1      48.995   0.994 111.250  1.00  0.00    -0.775 OA
HETATM   32  H42 UNL     1      48.374   1.735 111.085  1.00  0.00     0.167 HD
ENDBRANCH  29  31
ENDBRANCH  28  29
ENDBRANCH  25  28
ENDBRANCH  23  24
ENDBRANCH  22  23
ENDBRANCH  20  22
ENDBRANCH  17  20
BRANCH  13  33
HETATM   33  O5  UNL     1      50.060  -0.421 102.535  1.00  0.00    -0.395 OA
HETATM   34  H43 UNL     1      50.513   0.399 102.279  1.00  0.00     0.210 HD
ENDBRANCH  13  33
BRANCH   2  35
HETATM   35  O1  UNL     1      49.907  -6.450 101.415  1.00  0.00    -0.396 OA
HETATM   36  H33 UNL     1      49.787  -7.299 100.958  1.00  0.00     0.210 HD
ENDBRANCH   2  35
TORSDOF 9
ENDMDL
