MODEL 1
REMARK VINA RESULT:      -7.9      0.000      0.000
REMARK  13 active torsions:
REMARK  status: ('A' for Active; 'I' for Inactive)
REMARK    1  A    between atoms: C7_7  and  C8_8 
REMARK    2  A    between atoms: C8_8  and  C9_9 
REMARK    3  A    between atoms: C9_9  and  C10_10 
REMARK    4  A    between atoms: C10_10  and  C11_11 
REMARK    5  A    between atoms: C11_11  and  C12_12 
REMARK    6  A    between atoms: C12_12  and  C13_13 
REMARK    7  A    between atoms: C13_13  and  C14_14 
REMARK    8  A    between atoms: C14_14  and  C15_15 
REMARK    9  A    between atoms: C15_15  and  C16_16 
REMARK   10  A    between atoms: C16_16  and  C17_17 
REMARK   11  A    between atoms: C17_17  and  C18_18 
REMARK   12  A    between atoms: C18_18  and  C19_19 
REMARK   13  A    between atoms: C26_27  and  O2_28 
ROOT
HETATM    1  C8  UNL     1      48.139  -0.517 102.664  1.00  0.00     0.038 C 
ENDROOT
BRANCH   1   2
HETATM    2  C7  UNL     1      47.684  -0.469 104.155  1.00  0.00     0.064 C 
HETATM    3  C6  UNL     1      48.786   0.253 104.958  1.00  0.00     0.043 C 
HETATM    4  C5  UNL     1      48.501   0.234 106.450  1.00  0.00     0.044 C 
HETATM    5  C4  UNL     1      48.044  -1.127 106.884  1.00  0.00    -0.021 A 
HETATM    6  C3  UNL     1      47.574  -2.063 105.952  1.00  0.00     0.082 A 
HETATM    7  C25 UNL     1      48.055  -1.457 108.247  1.00  0.00     0.046 A 
HETATM    8  C2  UNL     1      47.144  -3.334 106.372  1.00  0.00    -0.025 A 
HETATM    9  O1  UNL     1      47.525  -1.823 104.605  1.00  0.00    -0.340 OA
HETATM   10  C1  UNL     1      46.630  -4.339 105.380  1.00  0.00     0.051 C 
HETATM   11  C27 UNL     1      47.166  -3.646 107.737  1.00  0.00     0.046 A 
HETATM   12  C26 UNL     1      47.619  -2.711 108.659  1.00  0.00     0.066 A 
HETATM   13  C24 UNL     1      46.337   0.266 104.280  1.00  0.00     0.046 C 
BRANCH  12  14
HETATM   14  O2  UNL     1      47.620  -3.066 109.976  1.00  0.00    -0.361 OA
HETATM   15  H45 UNL     1      46.714  -3.308 110.232  1.00  0.00     0.217 HD
ENDBRANCH  12  14
ENDBRANCH   1   2
BRANCH   1  16
HETATM   16  C9  UNL     1      49.644  -0.427 102.363  1.00  0.00     0.003 C 
BRANCH  16  17
HETATM   17  C10 UNL     1      50.129   0.726 101.480  1.00  0.00     0.004 C 
BRANCH  17  18
HETATM   18  C11 UNL     1      51.588   1.185 101.699  1.00  0.00    -0.019 C 
HETATM   19  C23 UNL     1      52.170   0.370 102.865  1.00  0.00     0.010 C 
BRANCH  18  20
HETATM   20  C12 UNL     1      51.691   2.699 101.991  1.00  0.00     0.004 C 
BRANCH  20  21
HETATM   21  C13 UNL     1      50.571   3.245 102.890  1.00  0.00     0.001 C 
BRANCH  21  22
HETATM   22  C14 UNL     1      50.944   3.323 104.374  1.00  0.00     0.004 C 
BRANCH  22  23
HETATM   23  C15 UNL     1      50.281   4.497 105.123  1.00  0.00    -0.019 C 
HETATM   24  C22 UNL     1      50.719   5.822 104.491  1.00  0.00     0.010 C 
BRANCH  23  25
HETATM   25  C16 UNL     1      50.515   4.511 106.648  1.00  0.00     0.004 C 
BRANCH  25  26
HETATM   26  C17 UNL     1      50.416   3.143 107.337  1.00  0.00     0.001 C 
BRANCH  26  27
HETATM   27  C18 UNL     1      50.858   3.237 108.802  1.00  0.00     0.004 C 
BRANCH  27  28
HETATM   28  C19 UNL     1      50.045   2.378 109.789  1.00  0.00    -0.023 C 
HETATM   29  C20 UNL     1      50.377   0.891 109.672  1.00  0.00     0.009 C 
HETATM   30  C21 UNL     1      50.198   2.846 111.237  1.00  0.00     0.009 C 
ENDBRANCH  27  28
ENDBRANCH  26  27
ENDBRANCH  25  26
ENDBRANCH  23  25
ENDBRANCH  22  23
ENDBRANCH  21  22
ENDBRANCH  20  21
ENDBRANCH  18  20
ENDBRANCH  17  18
ENDBRANCH  16  17
ENDBRANCH   1  16
TORSDOF 13
ENDMDL
