MODEL 1
REMARK VINA RESULT:      -6.9      0.000      0.000
REMARK  16 active torsions:
REMARK  status: ('A' for Active; 'I' for Inactive)
REMARK    1  A    between atoms: C1_1  and  C6_6 
REMARK    2  A    between atoms: C2_2  and  C3_3 
REMARK    3  A    between atoms: C4_4  and  C11_11 
REMARK    4  A    between atoms: C5_5  and  C6_6 
REMARK    5  A    between atoms: C7_7  and  C8_8 
REMARK    6  A    between atoms: C8_8  and  C9_9 
REMARK    7  A    between atoms: C9_9  and  C10_10 
REMARK    8  A    between atoms: C10_10  and  C20_21 
REMARK    9  A    between atoms: C11_11  and  C12_12 
REMARK   10  A    between atoms: C11_11  and  O1_20 
REMARK   11  A    between atoms: C12_12  and  C13_13 
REMARK   12  A    between atoms: C14_14  and  C15_15 
REMARK   13  A    between atoms: C15_15  and  C16_16 
REMARK   14  A    between atoms: C16_16  and  C17_17 
REMARK   15  A    between atoms: C17_17  and  C18_18 
REMARK   16  A    between atoms: C20_21  and  O3_23 
ROOT
HETATM    1  C3  UNL     1      50.847   3.799 107.257  1.00  0.00    -0.002 C 
HETATM    2  C4  UNL     1      51.238   3.640 105.981  1.00  0.00     0.005 C 
ENDROOT
BRANCH   1   3
HETATM    3  C2  UNL     1      51.710   3.502 108.376  1.00  0.00    -0.004 C 
HETATM    4  C1  UNL     1      51.327   3.077 109.592  1.00  0.00    -0.023 C 
BRANCH   4   5
HETATM    5  C6  UNL     1      49.939   2.818 110.103  1.00  0.00     0.054 C 
BRANCH   5   6
HETATM    6  C5  UNL     1      49.733   1.354 110.374  1.00  0.00    -0.027 C 
HETATM    7  C7  UNL     1      49.566   0.366 109.480  1.00  0.00    -0.030 C 
BRANCH   7   8
HETATM    8  C8  UNL     1      49.502   0.487 107.984  1.00  0.00     0.027 C 
BRANCH   8   9
HETATM    9  C9  UNL     1      48.754  -0.698 107.367  1.00  0.00     0.014 C 
BRANCH   9  10
HETATM   10  C10 UNL     1      48.144  -1.619 108.423  1.00  0.00     0.110 C 
BRANCH  10  11
HETATM   11  C20 UNL     1      46.846  -2.240 107.980  1.00  0.00     0.139 C 
HETATM   12  O2  UNL     1      46.594  -2.748 106.902  1.00  0.00    -0.650 OA
BRANCH  11  13
HETATM   13  O3  UNL     1      45.902  -2.164 108.940  1.00  0.00    -0.776 OA
HETATM   14  H32 UNL     1      46.110  -1.331 109.413  1.00  0.00     0.167 HD
ENDBRANCH  11  13
ENDBRANCH  10  11
ENDBRANCH   9  10
ENDBRANCH   8   9
ENDBRANCH   7   8
ENDBRANCH   5   6
ENDBRANCH   4   5
ENDBRANCH   1   3
BRANCH   2  15
HETATM   15  C11 UNL     1      50.415   3.921 104.746  1.00  0.00     0.144 C 
BRANCH  15  16
HETATM   16  C12 UNL     1      49.685   2.675 104.198  1.00  0.00     0.062 C 
BRANCH  16  17
HETATM   17  C13 UNL     1      50.378   1.363 104.479  1.00  0.00    -0.028 C 
HETATM   18  C14 UNL     1      50.568   0.340 103.629  1.00  0.00    -0.031 C 
BRANCH  18  19
HETATM   19  C15 UNL     1      50.187   0.271 102.178  1.00  0.00     0.027 C 
BRANCH  19  20
HETATM   20  C16 UNL     1      51.362   0.560 101.236  1.00  0.00     0.004 C 
BRANCH  20  21
HETATM   21  C17 UNL     1      51.425   2.026 100.796  1.00  0.00    -0.000 C 
BRANCH  21  22
HETATM   22  C18 UNL     1      52.126   2.224  99.449  1.00  0.00    -0.005 C 
HETATM   23  C19 UNL     1      53.385   3.073  99.536  1.00  0.00     0.005 C 
ENDBRANCH  21  22
ENDBRANCH  20  21
ENDBRANCH  19  20
ENDBRANCH  18  19
ENDBRANCH  16  17
ENDBRANCH  15  16
BRANCH  15  24
HETATM   24  O1  UNL     1      49.482   4.974 104.973  1.00  0.00    -0.391 OA
HETATM   25  H31 UNL     1      49.781   5.438 105.776  1.00  0.00     0.210 HD
ENDBRANCH  15  24
ENDBRANCH   2  15
TORSDOF 16
ENDMDL
