MODEL 1
REMARK VINA RESULT:      -6.9      0.000      0.000
REMARK  9 active torsions:
REMARK  status: ('A' for Active; 'I' for Inactive)
REMARK    1  A    between atoms: C1_1  and  N4_25 
REMARK    2  A    between atoms: N1_7  and  C9_11 
REMARK    3  A    between atoms: C7_8  and  C8_10 
REMARK    4  A    between atoms: C8_10  and  C13_16 
REMARK    5  A    between atoms: C9_11  and  C10_12 
REMARK    6  A    between atoms: C10_12  and  N3_13 
REMARK    7  A    between atoms: N3_13  and  C11_14 
REMARK    8  A    between atoms: C16_19  and  O1_22 
REMARK    9  A    between atoms: O1_22  and  C19_23 
ROOT
HETATM    1  C1  UNL     1      50.592   2.198 108.242  1.00  0.00     0.105 A 
HETATM    2  C2  UNL     1      50.467   2.686 106.932  1.00  0.00     0.038 A 
HETATM    3  C3  UNL     1      49.745   1.973 105.969  1.00  0.00     0.034 A 
HETATM    4  C4  UNL     1      49.163   0.765 106.374  1.00  0.00     0.065 A 
HETATM    5  C5  UNL     1      49.276   0.272 107.669  1.00  0.00     0.088 A 
HETATM    6  C6  UNL     1      50.001   0.986 108.633  1.00  0.00     0.070 A 
HETATM    7  N1  UNL     1      48.401  -0.181 105.718  1.00  0.00    -0.331 N 
HETATM    8  C7  UNL     1      48.084  -1.179 106.619  1.00  0.00     0.111 A 
HETATM    9  N2  UNL     1      48.610  -0.915 107.801  1.00  0.00    -0.233 NA
ENDROOT
BRANCH   8  10
HETATM   10  C8  UNL     1      47.244  -2.384 106.311  1.00  0.00     0.117 C 
BRANCH  10  11
HETATM   11  C13 UNL     1      48.032  -3.610 105.904  1.00  0.00    -0.051 A 
HETATM   12  C14 UNL     1      48.824  -4.303 106.828  1.00  0.00     0.010 A 
HETATM   13  C15 UNL     1      49.533  -5.442 106.438  1.00  0.00     0.037 A 
HETATM   14  C16 UNL     1      49.459  -5.919 105.128  1.00  0.00     0.068 A 
HETATM   15  C17 UNL     1      48.653  -5.250 104.209  1.00  0.00     0.037 A 
HETATM   16  C18 UNL     1      47.941  -4.107 104.596  1.00  0.00     0.010 A 
BRANCH  14  17
HETATM   17  O1  UNL     1      50.204  -7.040 104.891  1.00  0.00    -0.352 OA
BRANCH  17  18
HETATM   18  C19 UNL     1      51.452  -7.197 105.564  1.00  0.00     0.171 C 
HETATM   19  C20 UNL     1      52.600  -6.718 104.694  1.00  0.00     0.034 C 
ENDBRANCH  17  18
ENDBRANCH  14  17
ENDBRANCH  10  11
ENDBRANCH   8  10
BRANCH   7  20
HETATM   20  C9  UNL     1      48.023  -0.124 104.316  1.00  0.00     0.160 C 
BRANCH  20  21
HETATM   21  C10 UNL     1      49.189  -0.489 103.390  1.00  0.00     0.289 C 
BRANCH  21  22
HETATM   22  N3  UNL     1      49.482   0.508 102.356  1.00  0.00     0.084 N 
HETATM   23  H10 UNL     1      49.337   1.453 102.710  1.00  0.00     0.315 HD
BRANCH  22  24
HETATM   24  C11 UNL     1      50.826   0.380 101.797  1.00  0.00     0.265 C 
HETATM   25  C12 UNL     1      51.853   0.445 102.918  1.00  0.00     0.037 C 
ENDBRANCH  22  24
ENDBRANCH  21  22
ENDBRANCH  20  21
ENDBRANCH   7  20
BRANCH   1  26
HETATM   26  N4  UNL     1      51.359   2.969 109.228  1.00  0.00    -0.116 N 
HETATM   27  O2  UNL     1      50.826   3.194 110.324  1.00  0.00    -0.532 OA
HETATM   28  O3  UNL     1      52.495   3.350 108.910  1.00  0.00    -0.532 OA
ENDBRANCH   1  26
TORSDOF 9
ENDMDL
