MODEL 1
REMARK VINA RESULT:      -8.2      0.000      0.000
REMARK  6 active torsions:
REMARK  status: ('A' for Active; 'I' for Inactive)
REMARK       I    between atoms: C1_2  and  N1_3 
REMARK    1  A    between atoms: C1_2  and  C2_5 
REMARK    2  A    between atoms: N1_3  and  N2_4 
REMARK    3  A    between atoms: C2_5  and  S1_6 
REMARK    4  A    between atoms: S1_6  and  C3_7 
REMARK    5  A    between atoms: C6_12  and  C7_13 
REMARK    6  A    between atoms: N4_22  and  C15_23 
ROOT
HETATM    1  C3  UNL     1      48.195  -0.848 104.503  1.00  0.00     0.177 A 
HETATM    2  N3  UNL     1      48.605   0.243 103.932  1.00  0.00    -0.216 NA
HETATM    3  C4  UNL     1      49.208   1.131 104.750  1.00  0.00     0.117 A 
HETATM    4  S2  UNL     1      49.815   2.602 104.142  1.00  0.00    -0.080 SA
HETATM    5  C5  UNL     1      50.324   3.100 105.694  1.00  0.00     0.065 A 
HETATM    6  C6  UNL     1      50.037   2.163 106.669  1.00  0.00    -0.001 A 
HETATM    7  C13 UNL     1      49.390   1.009 106.106  1.00  0.00     0.080 A 
HETATM    8  C14 UNL     1      48.920  -0.211 106.747  1.00  0.00     0.268 A 
HETATM    9  O2  UNL     1      49.060  -0.380 107.955  1.00  0.00    -0.267 OA
HETATM   10  N4  UNL     1      48.353  -1.159 105.864  1.00  0.00    -0.256 N 
ENDROOT
BRANCH   1  11
HETATM   11  S1  UNL     1      47.267  -1.935 103.468  1.00  0.00    -0.082 SA
BRANCH  11  12
HETATM   12  C2  UNL     1      45.608  -1.237 103.707  1.00  0.00     0.186 C 
BRANCH  12  13
HETATM   13  C1  UNL     1      45.377  -0.127 102.703  1.00  0.00     0.241 C 
HETATM   14  O1  UNL     1      44.961  -0.333 101.563  1.00  0.00    -0.271 OA
HETATM   15  N1  UNL     1      45.691   1.143 103.178  1.00  0.00    -0.293 N 
HETATM   16  H1  UNL     1      45.762   1.285 104.186  1.00  0.00     0.183 HD
BRANCH  15  17
HETATM   17  N2  UNL     1      45.409   2.268 102.369  1.00  0.00    -0.247 NA
HETATM   18  H2  UNL     1      46.134   2.312 101.644  1.00  0.00     0.143 HD
HETATM   19  H3  UNL     1      44.557   2.049 101.834  1.00  0.00     0.143 HD
ENDBRANCH  15  17
ENDBRANCH  12  13
ENDBRANCH  11  12
ENDBRANCH   1  11
BRANCH  10  20
HETATM   20  C15 UNL     1      48.011  -2.440 106.417  1.00  0.00     0.044 A 
HETATM   21  C16 UNL     1      46.795  -2.623 107.092  1.00  0.00     0.030 A 
HETATM   22  C17 UNL     1      46.464  -3.862 107.646  1.00  0.00     0.002 A 
HETATM   23  C18 UNL     1      47.351  -4.932 107.543  1.00  0.00     0.000 A 
HETATM   24  C19 UNL     1      48.573  -4.760 106.897  1.00  0.00     0.002 A 
HETATM   25  C20 UNL     1      48.903  -3.520 106.343  1.00  0.00     0.030 A 
ENDBRANCH  10  20
BRANCH   6  26
HETATM   26  C7  UNL     1      50.413   2.419 108.054  1.00  0.00    -0.024 A 
HETATM   27  C8  UNL     1      51.736   2.736 108.381  1.00  0.00     0.012 A 
HETATM   28  C9  UNL     1      52.088   2.996 109.707  1.00  0.00     0.001 A 
HETATM   29  C10 UNL     1      51.121   2.948 110.710  1.00  0.00     0.000 A 
HETATM   30  C11 UNL     1      49.801   2.633 110.392  1.00  0.00     0.001 A 
HETATM   31  C12 UNL     1      49.446   2.370 109.067  1.00  0.00     0.012 A 
ENDBRANCH   6  26
TORSDOF 6
ENDMDL
