MODEL 1
REMARK VINA RESULT:      -8.7      0.000      0.000
REMARK  8 active torsions:
REMARK  status: ('A' for Active; 'I' for Inactive)
REMARK    1  A    between atoms: C3_3  and  C25_32 
REMARK    2  A    between atoms: N1_7  and  C10_13 
REMARK    3  A    between atoms: C7_8  and  O1_10 
REMARK    4  A    between atoms: O1_10  and  C8_11 
REMARK    5  A    between atoms: C10_13  and  C11_14 
REMARK    6  A    between atoms: C14_17  and  C17_20 
REMARK    7  A    between atoms: C18_21  and  C23_26 
REMARK    8  A    between atoms: C25_32  and  O4_33 
ROOT
HETATM    1  C11 UNL     1      48.466  -0.676 104.616  1.00  0.00    -0.040 A 
HETATM    2  C12 UNL     1      49.653  -1.015 105.276  1.00  0.00     0.010 A 
HETATM    3  C13 UNL     1      50.039  -0.346 106.442  1.00  0.00     0.013 A 
HETATM    4  C14 UNL     1      49.244   0.675 106.980  1.00  0.00    -0.025 A 
HETATM    5  C15 UNL     1      48.042   0.996 106.333  1.00  0.00     0.013 A 
HETATM    6  C16 UNL     1      47.658   0.329 105.167  1.00  0.00     0.010 A 
ENDROOT
BRANCH   1   7
HETATM    7  C10 UNL     1      48.047  -1.363 103.335  1.00  0.00     0.171 C 
BRANCH   7   8
HETATM    8  N1  UNL     1      48.035  -0.462 102.193  1.00  0.00    -0.304 N 
HETATM    9  C4  UNL     1      46.978   0.213 101.609  1.00  0.00     0.084 A 
HETATM   10  C3  UNL     1      45.573   0.258 101.762  1.00  0.00     0.067 A 
HETATM   11  C5  UNL     1      47.613   1.041 100.670  1.00  0.00     0.089 A 
HETATM   12  C2  UNL     1      44.851   1.166 100.958  1.00  0.00     0.021 A 
HETATM   13  C1  UNL     1      45.486   1.992 100.032  1.00  0.00     0.003 A 
HETATM   14  C6  UNL     1      46.868   1.930  99.878  1.00  0.00     0.034 A 
HETATM   15  N2  UNL     1      48.967   0.861 100.661  1.00  0.00    -0.206 NA
HETATM   16  C7  UNL     1      49.196  -0.043 101.581  1.00  0.00     0.249 A 
BRANCH  10  17
HETATM   17  C25 UNL     1      44.812  -0.633 102.658  1.00  0.00     0.178 C 
HETATM   18  O5  UNL     1      44.454  -1.771 102.432  1.00  0.00    -0.646 OA
BRANCH  17  19
HETATM   19  O4  UNL     1      44.525  -0.032 103.828  1.00  0.00    -0.773 OA
HETATM   20  H20 UNL     1      44.849  -0.658 104.508  1.00  0.00     0.167 HD
ENDBRANCH  17  19
ENDBRANCH  10  17
BRANCH  16  21
HETATM   21  O1  UNL     1      50.392  -0.498 101.942  1.00  0.00    -0.321 OA
BRANCH  21  22
HETATM   22  C8  UNL     1      51.478   0.414 101.764  1.00  0.00     0.174 C 
HETATM   23  C9  UNL     1      52.284   0.542 103.044  1.00  0.00     0.034 C 
ENDBRANCH  21  22
ENDBRANCH  16  21
ENDBRANCH   7   8
ENDBRANCH   1   7
BRANCH   4  24
HETATM   24  C17 UNL     1      49.660   1.391 108.196  1.00  0.00    -0.012 A 
HETATM   25  C18 UNL     1      50.236   2.677 108.173  1.00  0.00     0.023 A 
HETATM   26  C19 UNL     1      50.567   3.337 109.369  1.00  0.00     0.016 A 
HETATM   27  C20 UNL     1      50.334   2.719 110.597  1.00  0.00     0.001 A 
HETATM   28  C21 UNL     1      49.771   1.448 110.636  1.00  0.00     0.001 A 
HETATM   29  C22 UNL     1      49.438   0.792 109.448  1.00  0.00     0.013 A 
BRANCH  25  30
HETATM   30  C23 UNL     1      50.530   3.366 106.911  1.00  0.00     0.171 A 
HETATM   31  N3  UNL     1      51.009   2.831 105.838  1.00  0.00    -0.104 NA
HETATM   32  O2  UNL     1      51.092   3.906 104.896  1.00  0.00    -0.153 OA
HETATM   33  C24 UNL     1      50.620   5.019 105.542  1.00  0.00     0.390 A 
HETATM   34  N4  UNL     1      50.302   4.680 106.801  1.00  0.00    -0.283 N 
HETATM   35  O3  UNL     1      50.501   6.130 105.052  1.00  0.00    -0.236 OA
HETATM   36  H19 UNL     1      49.888   5.313 107.462  1.00  0.00     0.172 HD
ENDBRANCH  25  30
ENDBRANCH   4  24
TORSDOF 8
ENDMDL
