MODEL 1
REMARK VINA RESULT:      -8.2      0.000      0.000
REMARK  9 active torsions:
REMARK  status: ('A' for Active; 'I' for Inactive)
REMARK    1  A    between atoms: C1_1  and  C15_18 
REMARK    2  A    between atoms: C2_2  and  C3_3 
REMARK       I    between atoms: C3_3  and  N1_4 
REMARK    3  A    between atoms: N1_4  and  C4_5 
REMARK    4  A    between atoms: C4_5  and  C5_6 
REMARK    5  A    between atoms: C5_6  and  C6_7 
REMARK    6  A    between atoms: C6_7  and  C7_8 
REMARK    7  A    between atoms: C7_8  and  C8_9 
REMARK    8  A    between atoms: C17_20  and  O2_21 
REMARK    9  A    between atoms: C18_22  and  O3_23 
ROOT
HETATM    1  C1  UNL     1      48.784  -0.571 105.622  1.00  0.00     0.040 C 
HETATM    2  C2  UNL     1      48.167   0.064 104.607  1.00  0.00     0.113 C 
HETATM    3  C14 UNL     1      46.850  -0.234 104.159  1.00  0.00     0.105 C 
HETATM    4  N2  UNL     1      45.779  -0.514 103.807  1.00  0.00    -0.191 NA
ENDROOT
BRANCH   2   5
HETATM    5  C3  UNL     1      48.869   1.197 103.939  1.00  0.00     0.262 C 
HETATM    6  N1  UNL     1      50.022   1.620 104.565  1.00  0.00    -0.356 N 
HETATM    7  H2  UNL     1      50.400   1.086 105.337  1.00  0.00     0.162 HD
HETATM    8  O1  UNL     1      48.448   1.674 102.893  1.00  0.00    -0.267 OA
BRANCH   6   9
HETATM    9  C4  UNL     1      50.860   2.652 103.986  1.00  0.00     0.123 C 
BRANCH   9  10
HETATM   10  C5  UNL     1      51.205   3.733 105.006  1.00  0.00     0.020 C 
BRANCH  10  11
HETATM   11  C6  UNL     1      50.240   3.707 106.191  1.00  0.00     0.006 C 
BRANCH  11  12
HETATM   12  C7  UNL     1      50.980   3.904 107.516  1.00  0.00     0.038 C 
BRANCH  12  13
HETATM   13  C8  UNL     1      50.535   2.907 108.554  1.00  0.00    -0.058 A 
HETATM   14  C9  UNL     1      50.511   3.256 109.911  1.00  0.00     0.007 A 
HETATM   15  C10 UNL     1      50.081   2.338 110.870  1.00  0.00     0.001 A 
HETATM   16  C11 UNL     1      49.667   1.065 110.483  1.00  0.00     0.000 A 
HETATM   17  C12 UNL     1      49.681   0.709 109.136  1.00  0.00     0.001 A 
HETATM   18  C13 UNL     1      50.110   1.625 108.174  1.00  0.00     0.007 A 
ENDBRANCH  12  13
ENDBRANCH  11  12
ENDBRANCH  10  11
ENDBRANCH   9  10
ENDBRANCH   6   9
ENDBRANCH   2   5
BRANCH   1  19
HETATM   19  C15 UNL     1      48.228  -1.683 106.407  1.00  0.00    -0.032 A 
HETATM   20  C16 UNL     1      47.297  -1.406 107.416  1.00  0.00     0.051 A 
HETATM   21  C17 UNL     1      46.741  -2.452 108.156  1.00  0.00     0.099 A 
HETATM   22  C18 UNL     1      47.104  -3.772 107.890  1.00  0.00     0.098 A 
HETATM   23  C19 UNL     1      48.020  -4.058 106.882  1.00  0.00     0.040 A 
HETATM   24  C20 UNL     1      48.577  -3.014 106.138  1.00  0.00     0.014 A 
BRANCH  21  25
HETATM   25  O2  UNL     1      45.835  -2.195 109.146  1.00  0.00    -0.358 OA
HETATM   26  H17 UNL     1      46.286  -1.791 109.903  1.00  0.00     0.217 HD
ENDBRANCH  21  25
BRANCH  22  27
HETATM   27  O3  UNL     1      46.550  -4.780 108.627  1.00  0.00    -0.358 OA
HETATM   28  H18 UNL     1      47.248  -5.225 109.134  1.00  0.00     0.217 HD
ENDBRANCH  22  27
ENDBRANCH   1  19
TORSDOF 9
ENDMDL
