MODEL 1
REMARK VINA RESULT:      -6.0      0.000      0.000
REMARK  2 active torsions:
REMARK  status: ('A' for Active; 'I' for Inactive)
REMARK    1  A    between atoms: C1_2  and  HG1_10 
REMARK    2  A    between atoms: C4_5  and  C6_8 
ROOT
HETATM    1  C3  UNL     1      49.811   1.701 108.338  1.00  0.00     0.009 A 
HETATM    2  C4  UNL     1      50.501   2.870 108.496  1.00  0.00     0.056 A 
HETATM    3  S1  UNL     1      49.477   1.153 106.670  1.00  0.00    -0.168 SA
HETATM    4  C5  UNL     1      49.371   0.942 109.409  1.00  0.00     0.019 A 
HETATM    5  C7  UNL     1      50.756   3.289 109.784  1.00  0.00     0.020 C 
HETATM    6 HG1  UNL     1      48.254  -0.922 106.675  1.00  0.00     0.160 Hg
HETATM    7  C8  UNL     1      49.651   1.405 110.670  1.00  0.00     0.001 A 
HETATM    8  C9  UNL     1      50.349   2.586 110.876  1.00  0.00     0.001 C 
HETATM    9 NA1  UNL     1      49.470   0.780 108.727  1.00  0.00     0.000 Na
ENDROOT
BRANCH   2  10
HETATM   10  C6  UNL     1      50.961   3.664 107.363  1.00  0.00     0.210 C 
HETATM   11  O1  UNL     1      51.917   3.263 106.644  1.00  0.00    -0.644 OA
HETATM   12  O2  UNL     1      50.340   4.873 107.073  1.00  0.00    -0.644 OA
ENDBRANCH   2  10
BRANCH   6  13
HETATM   13  C1  UNL     1      47.533  -2.890 106.639  1.00  0.00    -0.033 C 
HETATM   14  C2  UNL     1      48.662  -3.874 106.780  1.00  0.00     0.012 C 
ENDBRANCH   6  13
TORSDOF 2
ENDMDL
