MODEL 1
REMARK VINA RESULT:      -7.3      0.000      0.000
REMARK  2 active torsions:
REMARK  status: ('A' for Active; 'I' for Inactive)
REMARK    1  A    between atoms: C6_6  and  O1_16 
REMARK    2  A    between atoms: C10_11  and  N2_12 
ROOT
HETATM    1  C1  UNL     1      49.970   1.751 110.637  1.00  0.00     0.037 A 
HETATM    2  C2  UNL     1      50.483   2.966 110.236  1.00  0.00     0.005 A 
HETATM    3  C3  UNL     1      50.599   3.301 108.903  1.00  0.00     0.030 A 
HETATM    4  C4  UNL     1      50.197   2.410 107.918  1.00  0.00     0.045 A 
HETATM    5  C5  UNL     1      49.682   1.188 108.291  1.00  0.00     0.031 A 
HETATM    6  C6  UNL     1      49.574   0.874 109.648  1.00  0.00     0.078 A 
HETATM    7  N1  UNL     1      50.195   2.468 106.560  1.00  0.00    -0.365 N 
HETATM    8  C7  UNL     1      49.702   1.340 106.049  1.00  0.00     0.096 A 
HETATM    9  C8  UNL     1      49.373   0.524 107.121  1.00  0.00    -0.026 A 
HETATM   10  C9  UNL     1      48.791  -0.835 107.104  1.00  0.00     0.069 A 
HETATM   11  C10 UNL     1      48.542  -1.351 105.727  1.00  0.00     0.240 A 
HETATM   12  I1  UNL     1      48.739  -0.542 107.316  1.00  0.00     0.000 I 
HETATM   13  H4  UNL     1      50.537   3.287 106.038  1.00  0.00     0.165 HD
ENDROOT
BRANCH  11  14
HETATM   14  N2  UNL     1      47.973  -2.686 105.848  1.00  0.00    -0.078 N 
HETATM   15  C11 UNL     1      46.633  -2.663 106.386  1.00  0.00     0.271 C 
HETATM   16  C12 UNL     1      48.782  -3.544 106.677  1.00  0.00     0.271 C 
HETATM   17  C13 UNL     1      47.901  -3.321 104.531  1.00  0.00     0.271 C 
ENDBRANCH  11  14
BRANCH   6  18
HETATM   18  O1  UNL     1      49.045  -0.373 109.945  1.00  0.00    -0.360 OA
HETATM   19  H19 UNL     1      48.556  -0.860 109.206  1.00  0.00     0.217 HD
ENDBRANCH   6  18
TORSDOF 2
ENDMDL
