MODEL 1
REMARK VINA RESULT:      -8.8      0.000      0.000
REMARK  5 active torsions:
REMARK  status: ('A' for Active; 'I' for Inactive)
REMARK       I    between atoms: C1_2  and  N1_3 
REMARK    1  A    between atoms: C1_2  and  C2_4 
REMARK    2  A    between atoms: C4_6  and  C11_16 
REMARK    3  A    between atoms: C5_8  and  N3_10 
REMARK    4  A    between atoms: C14_20  and  N6_22 
REMARK    5  A    between atoms: N6_22  and  C16_23 
ROOT
HETATM    1  C2  UNL     1      50.218   1.735 108.633  1.00  0.00     0.037 A 
HETATM    2  C3  UNL     1      50.417   2.724 107.672  1.00  0.00     0.049 A 
HETATM    3  C4  UNL     1      50.067   2.455 106.358  1.00  0.00     0.070 A 
HETATM    4  N2  UNL     1      49.553   1.250 106.000  1.00  0.00    -0.236 NA
HETATM    5  C5  UNL     1      49.355   0.286 106.925  1.00  0.00     0.107 A 
HETATM    6  C6  UNL     1      49.692   0.503 108.255  1.00  0.00     0.061 A 
ENDROOT
BRANCH   3   7
HETATM    7  C11 UNL     1      50.231   3.428 105.258  1.00  0.00    -0.003 A 
HETATM    8  C12 UNL     1      50.507   4.771 105.526  1.00  0.00     0.033 A 
HETATM    9  C13 UNL     1      50.664   5.651 104.472  1.00  0.00     0.119 A 
HETATM   10  N5  UNL     1      50.566   5.297 103.174  1.00  0.00    -0.249 NA
HETATM   11  C14 UNL     1      50.303   4.008 102.893  1.00  0.00     0.103 A 
HETATM   12  C15 UNL     1      50.140   3.061 103.905  1.00  0.00     0.058 A 
BRANCH  11  13
HETATM   13  N6  UNL     1      50.211   3.562 101.563  1.00  0.00    -0.273 NA
HETATM   14  H17 UNL     1      50.564   4.307 100.967  1.00  0.00     0.129 HD
BRANCH  13  15
HETATM   15  C16 UNL     1      50.841   2.265 101.261  1.00  0.00     0.061 C 
HETATM   16  C17 UNL     1      50.095   1.555 100.124  1.00  0.00     0.020 C 
HETATM   17  C18 UNL     1      50.107   2.348  98.813  1.00  0.00     0.002 C 
HETATM   18  C19 UNL     1      51.364   3.194  98.618  1.00  0.00     0.000 C 
HETATM   19  C20 UNL     1      52.560   2.610  99.355  1.00  0.00     0.002 C 
HETATM   20  C21 UNL     1      52.317   2.493 100.863  1.00  0.00     0.020 C 
ENDBRANCH  13  15
ENDBRANCH  11  13
ENDBRANCH   3   7
BRANCH   1  21
HETATM   21  C1  UNL     1      50.612   2.035 110.033  1.00  0.00     0.249 C 
HETATM   22  O1  UNL     1      50.110   1.439 110.978  1.00  0.00    -0.268 OA
HETATM   23  N1  UNL     1      51.583   2.972 110.237  1.00  0.00    -0.366 N 
HETATM   24  H1  UNL     1      51.906   3.071 111.192  1.00  0.00     0.159 HD
HETATM   25  H2  UNL     1      52.203   3.292 109.508  1.00  0.00     0.159 HD
ENDBRANCH   1  21
BRANCH   5  26
HETATM   26  N3  UNL     1      48.838  -0.956 106.524  1.00  0.00    -0.264 NA
HETATM   27  C7  UNL     1      47.983  -1.613 107.537  1.00  0.00     0.127 C 
HETATM   28  C8  UNL     1      46.988  -2.615 106.899  1.00  0.00     0.284 C 
HETATM   29  N4  UNL     1      47.570  -3.366 105.774  1.00  0.00     0.085 N 
HETATM   30  C9  UNL     1      47.977  -2.418 104.711  1.00  0.00     0.284 C 
HETATM   31  H9  UNL     1      48.429  -3.798 106.120  1.00  0.00     0.315 HD
HETATM   32  C10 UNL     1      48.274  -0.965 105.162  1.00  0.00     0.127 C 
ENDBRANCH   5  26
TORSDOF 5
ENDMDL
