MODEL 1
REMARK VINA RESULT:      -9.7      0.000      0.000
REMARK  3 active torsions:
REMARK  status: ('A' for Active; 'I' for Inactive)
REMARK    1  A    between atoms: N1_4  and  C3_5 
REMARK    2  A    between atoms: C5_7  and  C21_24 
REMARK    3  A    between atoms: N2_17  and  C15_18 
ROOT
HETATM    1  O1  UNL     1      49.300   0.776 105.051  1.00  0.00    -0.265 OA
HETATM    2  C1  UNL     1      49.466   1.053 106.220  1.00  0.00     0.282 A 
HETATM    3  C2  UNL     1      50.062   2.376 106.722  1.00  0.00     0.138 A 
HETATM    4  N1  UNL     1      50.482   3.412 106.064  1.00  0.00    -0.243 NA
HETATM    5  C9  UNL     1      50.092   2.281 108.175  1.00  0.00     0.026 A 
HETATM    6  C10 UNL     1      50.587   3.198 109.088  1.00  0.00     0.016 A 
HETATM    7  C11 UNL     1      50.570   2.835 110.431  1.00  0.00     0.001 A 
HETATM    8  C12 UNL     1      50.087   1.573 110.816  1.00  0.00     0.002 A 
HETATM    9  C13 UNL     1      49.595   0.664 109.865  1.00  0.00     0.031 A 
HETATM   10  C14 UNL     1      49.566   1.042 108.531  1.00  0.00     0.055 A 
HETATM   11  N2  UNL     1      49.156   0.328 107.378  1.00  0.00    -0.276 N 
ENDROOT
BRANCH   4  12
HETATM   12  C3  UNL     1      50.411   3.411 104.667  1.00  0.00     0.058 A 
HETATM   13  C4  UNL     1      51.355   2.710 103.915  1.00  0.00     0.047 A 
HETATM   14  C5  UNL     1      51.309   2.717 102.512  1.00  0.00     0.050 A 
HETATM   15  C6  UNL     1      50.315   3.473 101.871  1.00  0.00     0.016 A 
HETATM   16  C7  UNL     1      49.384   4.194 102.619  1.00  0.00     0.003 A 
HETATM   17  C8  UNL     1      49.437   4.166 104.013  1.00  0.00     0.031 A 
BRANCH  14  18
HETATM   18  C21 UNL     1      52.334   1.959 101.712  1.00  0.00     0.417 C 
HETATM   19  F1  UNL     1      51.852   0.802 101.174  1.00  0.00    -0.166 F 
HETATM   20  F2  UNL     1      52.833   2.673 100.664  1.00  0.00    -0.166 F 
HETATM   21  F3  UNL     1      53.413   1.599 102.462  1.00  0.00    -0.166 F 
ENDBRANCH  14  18
ENDBRANCH   4  12
BRANCH  11  22
HETATM   22  C15 UNL     1      48.515  -0.934 107.386  1.00  0.00     0.043 A 
HETATM   23  C16 UNL     1      47.251  -1.125 107.964  1.00  0.00     0.030 A 
HETATM   24  C17 UNL     1      46.629  -2.378 107.949  1.00  0.00     0.002 A 
HETATM   25  C18 UNL     1      47.254  -3.462 107.342  1.00  0.00     0.000 A 
HETATM   26  C19 UNL     1      48.495  -3.287 106.738  1.00  0.00     0.002 A 
HETATM   27  C20 UNL     1      49.114  -2.033 106.753  1.00  0.00     0.030 A 
ENDBRANCH  11  22
TORSDOF 3
ENDMDL
