MODEL 1
REMARK VINA RESULT:      -8.2      0.000      0.000
REMARK  8 active torsions:
REMARK  status: ('A' for Active; 'I' for Inactive)
REMARK    1  A    between atoms: C1_1  and  C2_2 
REMARK    2  A    between atoms: C1_1  and  N1_7 
REMARK    3  A    between atoms: C1_1  and  C14_22 
REMARK    4  A    between atoms: C2_2  and  S1_3 
REMARK    5  A    between atoms: C11_17  and  N2_18 
REMARK       I    between atoms: N2_18  and  C12_19 
REMARK    6  A    between atoms: C16_24  and  O6_25 
REMARK    7  A    between atoms: O6_25  and  C17_26 
REMARK    8  A    between atoms: C19_28  and  O7_29 
ROOT
HETATM    1  C1  UNL     1      48.095  -1.467 106.755  1.00  0.00     0.143 C 
ENDROOT
BRANCH   1   2
HETATM    2  C2  UNL     1      48.965  -2.692 106.474  1.00  0.00     0.170 C 
BRANCH   2   3
HETATM    3  S1  UNL     1      48.264  -4.204 107.108  1.00  0.00     0.143 S 
HETATM    4  C3  UNL     1      47.013  -4.663 105.929  1.00  0.00     0.161 C 
HETATM    5  O1  UNL     1      47.606  -3.923 108.369  1.00  0.00    -0.228 OA
HETATM    6  O2  UNL     1      49.302  -5.215 107.033  1.00  0.00    -0.228 OA
ENDBRANCH   2   3
ENDBRANCH   1   2
BRANCH   1   7
HETATM    7  N1  UNL     1      48.806  -0.344 107.355  1.00  0.00    -0.270 N 
HETATM    8  C4  UNL     1      49.318   0.730 106.683  1.00  0.00     0.264 A 
HETATM    9  O3  UNL     1      49.310   0.974 105.490  1.00  0.00    -0.267 OA
HETATM   10  C5  UNL     1      49.910   1.618 107.683  1.00  0.00     0.075 A 
HETATM   11  C6  UNL     1      49.701   1.037 108.921  1.00  0.00     0.050 A 
HETATM   12  C11 UNL     1      50.564   2.830 107.527  1.00  0.00     0.051 A 
HETATM   13  C7  UNL     1      48.979  -0.213 108.707  1.00  0.00     0.262 A 
HETATM   14  C8  UNL     1      50.131   1.630 110.090  1.00  0.00     0.018 A 
HETATM   15  O4  UNL     1      48.606  -0.962 109.592  1.00  0.00    -0.267 OA
HETATM   16  C9  UNL     1      50.795   2.853 109.970  1.00  0.00     0.003 A 
HETATM   17  C10 UNL     1      51.009   3.446 108.703  1.00  0.00     0.030 A 
BRANCH  12  18
HETATM   18  N2  UNL     1      50.734   3.353 106.229  1.00  0.00    -0.327 N 
HETATM   19  C12 UNL     1      50.484   4.642 105.801  1.00  0.00     0.218 C 
HETATM   20  C13 UNL     1      50.802   4.839 104.340  1.00  0.00     0.117 C 
HETATM   21  O5  UNL     1      50.074   5.570 106.487  1.00  0.00    -0.274 OA
HETATM   22  H10 UNL     1      51.089   2.693 105.535  1.00  0.00     0.169 HD
ENDBRANCH  12  18
ENDBRANCH   1   7
BRANCH   1  23
HETATM   23  C14 UNL     1      47.310  -0.985 105.535  1.00  0.00    -0.031 A 
HETATM   24  C15 UNL     1      47.714  -1.413 104.251  1.00  0.00     0.049 A 
HETATM   25  C16 UNL     1      47.013  -1.015 103.111  1.00  0.00     0.102 A 
HETATM   26  C19 UNL     1      45.897  -0.188 103.264  1.00  0.00     0.099 A 
HETATM   27  C20 UNL     1      45.467   0.229 104.516  1.00  0.00     0.040 A 
HETATM   28  C21 UNL     1      46.169  -0.175 105.651  1.00  0.00     0.012 A 
BRANCH  25  29
HETATM   29  O6  UNL     1      47.305  -1.360 101.818  1.00  0.00    -0.349 OA
BRANCH  29  30
HETATM   30  C17 UNL     1      48.623  -1.066 101.353  1.00  0.00     0.171 C 
HETATM   31  C18 UNL     1      49.125  -2.272 100.580  1.00  0.00     0.034 C 
ENDBRANCH  29  30
ENDBRANCH  25  29
BRANCH  26  32
HETATM   32  O7  UNL     1      45.188   0.223 102.168  1.00  0.00    -0.358 OA
HETATM   33  H20 UNL     1      44.413  -0.372 102.132  1.00  0.00     0.217 HD
ENDBRANCH  26  32
ENDBRANCH   1  23
TORSDOF 8
ENDMDL
