MODEL 1
REMARK VINA RESULT:      -7.7      0.000      0.000
REMARK  5 active torsions:
REMARK  status: ('A' for Active; 'I' for Inactive)
REMARK    1  A    between atoms: O1_2  and  C2_3 
REMARK    2  A    between atoms: C2_3  and  C3_4 
REMARK    3  A    between atoms: C8_10  and  S3_19 
REMARK    4  A    between atoms: C9_12  and  S2_13 
REMARK    5  A    between atoms: S2_13  and  N2_15 
ROOT
HETATM    1  C3  UNL     1      48.572   2.989 101.097  1.00  0.00     0.042 A 
HETATM    2  C4  UNL     1      49.840   3.289 101.894  1.00  0.00     0.109 A 
HETATM    3  N1  UNL     1      49.689   2.758 103.272  1.00  0.00    -0.203 N 
HETATM    4  C5  UNL     1      50.155   1.335 103.442  1.00  0.00     0.147 A 
HETATM    5  C6  UNL     1      49.559   0.664 104.735  1.00  0.00     0.267 A 
HETATM    6  C7  UNL     1      49.867   1.441 105.990  1.00  0.00     0.007 A 
HETATM    7  C8  UNL     1      50.142   2.796 105.950  1.00  0.00     0.125 A 
HETATM    8  S1  UNL     1      50.433   3.479 107.470  1.00  0.00    -0.063 SA
HETATM    9  C9  UNL     1      50.211   1.966 108.245  1.00  0.00     0.117 A 
HETATM   10  C10 UNL     1      49.912   0.963 107.337  1.00  0.00     0.043 A 
HETATM   11  N3  UNL     1      48.102   0.568 104.669  1.00  0.00     0.088 N 
HETATM   12  S3  UNL     1      50.280   3.798 104.498  1.00  0.00     0.251 SA
HETATM   13  O4  UNL     1      51.707   3.945 104.299  1.00  0.00    -0.205 OA
HETATM   14  O5  UNL     1      49.388   4.921 104.654  1.00  0.00    -0.205 OA
HETATM   15  C11 UNL     1      49.719   2.198 104.694  1.00  0.00     0.243 A 
HETATM   16  O6  UNL     1      50.479   2.874 105.566  1.00  0.00    -0.769 OA
HETATM   17  C12 UNL     1      49.517   2.964 103.350  1.00  0.00     0.243 A 
HETATM   18  O7  UNL     1      48.760   2.288 102.477  1.00  0.00    -0.769 OA
HETATM   19  O8  UNL     1      49.983   4.056 103.086  1.00  0.00    -0.642 OA
HETATM   20  O9  UNL     1      49.253   1.108 104.959  1.00  0.00    -0.642 OA
HETATM   21  H16 UNL     1      47.814   0.078 103.825  1.00  0.00     0.313 HD
HETATM   22  H17 UNL     1      47.747   0.034 105.461  1.00  0.00     0.313 HD
HETATM   23  H18 UNL     1      50.526   2.294 106.352  1.00  0.00     0.168 HD
HETATM   24  H19 UNL     1      48.712   2.869 101.691  1.00  0.00     0.168 HD
ENDROOT
BRANCH   9  25
HETATM   25  S2  UNL     1      50.389   1.948 110.014  1.00  0.00     0.245 S 
HETATM   26  O2  UNL     1      51.765   1.589 110.253  1.00  0.00    -0.206 OA
HETATM   27  O3  UNL     1      49.808   3.199 110.445  1.00  0.00    -0.206 OA
BRANCH  25  28
HETATM   28  N2  UNL     1      49.425   0.720 110.625  1.00  0.00    -0.225 NA
HETATM   29  H13 UNL     1      48.820   0.305 109.920  1.00  0.00     0.136 HD
HETATM   30  H14 UNL     1      49.961   0.054 111.182  1.00  0.00     0.136 HD
ENDBRANCH  25  28
ENDBRANCH   9  25
BRANCH   1  31
HETATM   31  C2  UNL     1      48.725   3.348  99.624  1.00  0.00     0.168 C 
BRANCH  31  32
HETATM   32  O1  UNL     1      47.450   3.659  99.073  1.00  0.00    -0.396 OA
HETATM   33  C1  UNL     1      46.393   3.046  99.804  1.00  0.00     0.201 C 
ENDBRANCH  31  32
ENDBRANCH   1  31
TORSDOF 5
ENDMDL
