MODEL 1
REMARK VINA RESULT:      -8.4      0.000      0.000
REMARK  5 active torsions:
REMARK  status: ('A' for Active; 'I' for Inactive)
REMARK    1  A    between atoms: C11_12  and  C17_19 
REMARK    2  A    between atoms: C13_14  and  O2_18 
REMARK    3  A    between atoms: C17_19  and  C18_20 
REMARK    4  A    between atoms: C18_20  and  C19_21 
REMARK    5  A    between atoms: C19_21  and  C20_22 
ROOT
HETATM    1  C1  UNL     1      48.495  -1.112 101.024  1.00  0.00     0.034 C 
HETATM    2  C2  UNL     1      49.920  -0.551 101.143  1.00  0.00     0.013 C 
HETATM    3  C3  UNL     1      49.988   0.533 102.228  1.00  0.00     0.032 C 
HETATM    4  C4  UNL     1      49.644  -0.116 103.589  1.00  0.00     0.054 C 
HETATM    5  C5  UNL     1      48.250  -0.711 103.485  1.00  0.00    -0.014 C 
HETATM    6  C6  UNL     1      47.736  -1.173 102.328  1.00  0.00    -0.087 C 
HETATM    7  C7  UNL     1      51.310   1.317 102.323  1.00  0.00     0.065 C 
HETATM    8  O1  UNL     1      51.163   2.372 103.296  1.00  0.00    -0.340 OA
HETATM    9  C8  UNL     1      50.573   2.046 104.489  1.00  0.00     0.080 A 
HETATM   10  C9  UNL     1      49.870   0.856 104.728  1.00  0.00     0.017 A 
HETATM   11  C10 UNL     1      50.745   3.005 105.495  1.00  0.00     0.044 A 
HETATM   12  C11 UNL     1      50.267   2.779 106.787  1.00  0.00    -0.053 A 
HETATM   13  C12 UNL     1      49.653   1.557 107.063  1.00  0.00     0.044 A 
HETATM   14  C13 UNL     1      49.485   0.605 106.055  1.00  0.00     0.075 A 
HETATM   15  C14 UNL     1      46.350  -1.750 102.249  1.00  0.00     0.043 C 
HETATM   16  C15 UNL     1      51.603   2.053 101.003  1.00  0.00     0.046 C 
HETATM   17  C16 UNL     1      52.543   0.468 102.673  1.00  0.00     0.046 C 
ENDROOT
BRANCH  12  18
HETATM   18  C17 UNL     1      50.467   3.805 107.875  1.00  0.00     0.039 C 
BRANCH  18  19
HETATM   19  C18 UNL     1      51.778   3.576 108.632  1.00  0.00     0.005 C 
BRANCH  19  20
HETATM   20  C19 UNL     1      51.595   2.799 109.939  1.00  0.00    -0.000 C 
BRANCH  20  21
HETATM   21  C20 UNL     1      50.200   2.953 110.546  1.00  0.00    -0.005 C 
HETATM   22  C21 UNL     1      49.535   1.601 110.757  1.00  0.00     0.005 C 
ENDBRANCH  20  21
ENDBRANCH  19  20
ENDBRANCH  18  19
ENDBRANCH  12  18
BRANCH  14  23
HETATM   23  O2  UNL     1      48.962  -0.590 106.472  1.00  0.00    -0.360 OA
HETATM   24  H19 UNL     1      48.766  -1.132 105.691  1.00  0.00     0.217 HD
ENDBRANCH  14  23
TORSDOF 5
ENDMDL
