MODEL 1
REMARK VINA RESULT:      -9.9      0.000      0.000
REMARK  2 active torsions:
REMARK  status: ('A' for Active; 'I' for Inactive)
REMARK    1  A    between atoms: C11_16  and  N5_26 
REMARK    2  A    between atoms: C17_23  and  N6_27 
ROOT
HETATM    1  O1  UNL     1      47.953   0.990 102.825  1.00  0.00    -0.245 OA
HETATM    2  C1  UNL     1      48.854   1.801 103.012  1.00  0.00     0.346 A 
HETATM    3  N1  UNL     1      49.610   2.325 101.996  1.00  0.00    -0.199 NA
HETATM    4  C2  UNL     1      50.540   3.175 102.291  1.00  0.00     0.038 A 
HETATM    5  C3  UNL     1      50.856   3.636 103.663  1.00  0.00     0.051 A 
HETATM    6  C4  UNL     1      50.102   3.108 104.632  1.00  0.00     0.011 A 
HETATM    7  N2  UNL     1      49.125   2.211 104.295  1.00  0.00    -0.311 N 
HETATM    8  C5  UNL     1      50.259   3.439 106.082  1.00  0.00     0.068 A 
HETATM    9  C6  UNL     1      51.363   3.742 101.162  1.00  0.00     0.070 A 
HETATM   10  O2  UNL     1      50.466   1.718 103.495  1.00  0.00    -0.247 OA
HETATM   11  C7  UNL     1      50.555   2.935 103.576  1.00  0.00     0.325 A 
HETATM   12  N3  UNL     1      50.634   3.651 104.764  1.00  0.00    -0.309 N 
HETATM   13  C8  UNL     1      50.514   3.146 106.075  1.00  0.00     0.036 A 
HETATM   14  C9  UNL     1      50.089   1.847 106.375  1.00  0.00     0.032 A 
HETATM   15  C10 UNL     1      49.983   1.418 107.704  1.00  0.00     0.038 A 
HETATM   16  C11 UNL     1      50.299   2.299 108.743  1.00  0.00     0.103 A 
HETATM   17  C12 UNL     1      50.717   3.603 108.460  1.00  0.00     0.038 A 
HETATM   18  C13 UNL     1      50.819   4.020 107.128  1.00  0.00     0.032 A 
HETATM   19  N4  UNL     1      50.594   3.804 102.493  1.00  0.00    -0.309 N 
HETATM   20  C14 UNL     1      50.652   3.464 101.126  1.00  0.00     0.036 A 
HETATM   21  C15 UNL     1      50.488   4.505 100.201  1.00  0.00     0.032 A 
HETATM   22  C16 UNL     1      50.540   4.256  98.825  1.00  0.00     0.038 A 
HETATM   23  C17 UNL     1      50.765   2.953  98.367  1.00  0.00     0.103 A 
HETATM   24  C18 UNL     1      50.940   1.907  99.279  1.00  0.00     0.038 A 
HETATM   25  C19 UNL     1      50.885   2.168 100.654  1.00  0.00     0.032 A 
HETATM   26  H2  UNL     1      48.534   1.789 105.000  1.00  0.00     0.170 HD
HETATM   27  H9  UNL     1      50.969   4.599 104.683  1.00  0.00     0.170 HD
HETATM   28  H14 UNL     1      50.402   4.772 102.702  1.00  0.00     0.170 HD
ENDROOT
BRANCH  16  29
HETATM   29  N5  UNL     1      50.189   1.855 110.138  1.00  0.00    -0.116 N 
HETATM   30  O3  UNL     1      50.001   2.722 111.005  1.00  0.00    -0.532 OA
HETATM   31  O4  UNL     1      50.287   0.641 110.368  1.00  0.00    -0.532 OA
ENDBRANCH  16  29
BRANCH  23  32
HETATM   32  N6  UNL     1      50.824   2.684  96.926  1.00  0.00    -0.116 N 
HETATM   33  O5  UNL     1      49.960   3.209  96.207  1.00  0.00    -0.532 OA
HETATM   34  O6  UNL     1      51.731   1.950  96.511  1.00  0.00    -0.532 OA
ENDBRANCH  23  32
TORSDOF 2
ENDMDL
