MODEL 1
REMARK VINA RESULT:      -8.9      0.000      0.000
REMARK  7 active torsions:
REMARK  status: ('A' for Active; 'I' for Inactive)
REMARK    1  A    between atoms: C1_2  and  O2_3 
REMARK       I    between atoms: C1_2  and  N1_5 
REMARK    2  A    between atoms: N1_5  and  C3_6 
REMARK    3  A    between atoms: C4_7  and  N8_30 
REMARK    4  A    between atoms: C5_9  and  C7_13 
REMARK    5  A    between atoms: C6_11  and  N4_12 
REMARK    6  A    between atoms: N6_15  and  C13_23 
REMARK    7  A    between atoms: C13_23  and  C14_24 
ROOT
HETATM    1  C3  UNL     1      47.033  -3.455 107.998  1.00  0.00     0.117 A 
HETATM    2  C4  UNL     1      47.681  -2.695 108.969  1.00  0.00     0.133 A 
HETATM    3  N2  UNL     1      48.279  -1.524 108.686  1.00  0.00    -0.213 NA
HETATM    4  C5  UNL     1      48.250  -1.111 107.405  1.00  0.00     0.184 A 
HETATM    5  N3  UNL     1      47.666  -1.778 106.392  1.00  0.00    -0.213 NA
HETATM    6  C6  UNL     1      47.069  -2.928 106.709  1.00  0.00     0.133 A 
ENDROOT
BRANCH   4   7
HETATM    7  C7  UNL     1      48.902   0.176 107.091  1.00  0.00     0.139 A 
HETATM    8  N5  UNL     1      49.004   0.640 105.826  1.00  0.00    -0.166 NA
HETATM    9  N6  UNL     1      49.671   1.809 105.944  1.00  0.00    -0.246 N 
HETATM   10  C8  UNL     1      49.959   2.150 107.236  1.00  0.00     0.159 A 
HETATM   11  N7  UNL     1      50.585   3.273 107.656  1.00  0.00    -0.238 NA
HETATM   12  C12 UNL     1      49.489   1.100 108.016  1.00  0.00     0.049 A 
HETATM   13  C9  UNL     1      50.748   3.306 109.002  1.00  0.00     0.161 A 
HETATM   14  C10 UNL     1      50.337   2.322 109.886  1.00  0.00     0.134 A 
HETATM   15  F1  UNL     1      50.554   2.464 111.200  1.00  0.00    -0.205 F 
HETATM   16  C11 UNL     1      49.693   1.187 109.406  1.00  0.00     0.061 A 
BRANCH   9  17
HETATM   17  C13 UNL     1      49.972   2.600 104.761  1.00  0.00     0.195 C 
BRANCH  17  18
HETATM   18  C14 UNL     1      50.381   1.729 103.603  1.00  0.00     0.000 A 
HETATM   19  C15 UNL     1      49.467   1.423 102.591  1.00  0.00     0.124 A 
HETATM   20  C16 UNL     1      49.818   0.603 101.521  1.00  0.00     0.043 A 
HETATM   21  F2  UNL     1      48.230   1.937 102.627  1.00  0.00    -0.205 F 
HETATM   22  C17 UNL     1      51.105   0.070 101.453  1.00  0.00     0.003 A 
HETATM   23  C18 UNL     1      52.031   0.363 102.455  1.00  0.00     0.001 A 
HETATM   24  C19 UNL     1      51.672   1.186 103.527  1.00  0.00     0.012 A 
ENDBRANCH  17  18
ENDBRANCH   9  17
ENDBRANCH   4   7
BRANCH   2  25
HETATM   25  N8  UNL     1      47.901  -3.144 110.266  1.00  0.00    -0.285 NA
HETATM   26  H15 UNL     1      47.056  -3.108 110.843  1.00  0.00     0.125 HD
HETATM   27  H16 UNL     1      48.687  -2.656 110.678  1.00  0.00     0.125 HD
ENDBRANCH   2  25
BRANCH   6  28
HETATM   28  N4  UNL     1      46.425  -3.588 105.644  1.00  0.00    -0.285 NA
HETATM   29  H5  UNL     1      45.627  -4.065 106.066  1.00  0.00     0.125 HD
HETATM   30  H6  UNL     1      47.053  -4.272 105.232  1.00  0.00     0.125 HD
ENDBRANCH   6  28
BRANCH   1  31
HETATM   31  N1  UNL     1      46.385  -4.699 108.171  1.00  0.00    -0.297 N 
HETATM   32  C1  UNL     1      46.926  -5.908 108.483  1.00  0.00     0.364 C 
HETATM   33  O1  UNL     1      48.091  -6.151 108.765  1.00  0.00    -0.238 OA
HETATM   34  H4  UNL     1      45.372  -4.676 108.135  1.00  0.00     0.171 HD
BRANCH  32  35
HETATM   35  O2  UNL     1      45.928  -6.832 108.495  1.00  0.00    -0.309 OA
HETATM   36  C2  UNL     1      44.613  -6.276 108.474  1.00  0.00     0.215 C 
ENDBRANCH  32  35
ENDBRANCH   1  31
TORSDOF 7
ENDMDL
