MODEL 1
REMARK VINA RESULT:      -6.8      0.000      0.000
REMARK  16 active torsions:
REMARK  status: ('A' for Active; 'I' for Inactive)
REMARK    1  A    between atoms: C1_1  and  C2_2 
REMARK    2  A    between atoms: C1_1  and  C21_22 
REMARK    3  A    between atoms: C2_2  and  C3_3 
REMARK    4  A    between atoms: C3_3  and  C4_4 
REMARK    5  A    between atoms: C3_3  and  O1_21 
REMARK    6  A    between atoms: C4_4  and  C5_5 
REMARK    7  A    between atoms: C5_5  and  C6_6 
REMARK    8  A    between atoms: C6_6  and  C7_7 
REMARK    9  A    between atoms: C7_7  and  C8_8 
REMARK   10  A    between atoms: C8_8  and  C9_9 
REMARK   11  A    between atoms: C9_9  and  C10_10 
REMARK   12  A    between atoms: C10_10  and  C11_11 
REMARK   13  A    between atoms: C11_11  and  C12_12 
REMARK   14  A    between atoms: C12_12  and  C13_13 
REMARK   15  A    between atoms: C13_13  and  C14_14 
REMARK   16  A    between atoms: C14_14  and  C15_15 
ROOT
HETATM    1  C3  UNL     1      48.063  -2.435 101.372  1.00  0.00     0.054 C 
HETATM    2  C20 UNL     1      48.349  -3.903 101.000  1.00  0.00     0.045 C 
ENDROOT
BRANCH   1   3
HETATM    3  C2  UNL     1      49.377  -1.770 101.850  1.00  0.00     0.042 C 
BRANCH   3   4
HETATM    4  C1  UNL     1      49.883  -0.591 101.003  1.00  0.00     0.046 C 
BRANCH   4   5
HETATM    5  C21 UNL     1      49.885   0.701 101.797  1.00  0.00     0.002 A 
HETATM    6  C22 UNL     1      50.926   1.174 102.504  1.00  0.00    -0.001 A 
HETATM    7  C23 UNL     1      52.284   0.534 102.594  1.00  0.00     0.053 C 
HETATM    8  C24 UNL     1      50.808   2.443 103.275  1.00  0.00     0.185 A 
HETATM    9  O2  UNL     1      51.773   2.890 103.891  1.00  0.00    -0.287 OA
HETATM   10  C25 UNL     1      49.501   3.160 103.289  1.00  0.00    -0.002 A 
HETATM   11  C26 UNL     1      49.494   4.387 104.159  1.00  0.00     0.053 C 
HETATM   12  C27 UNL     1      48.462   2.697 102.570  1.00  0.00    -0.002 A 
HETATM   13  C28 UNL     1      47.107   3.341 102.469  1.00  0.00     0.053 C 
HETATM   14  C29 UNL     1      48.594   1.450 101.765  1.00  0.00     0.185 A 
HETATM   15  O3  UNL     1      47.654   1.048 101.081  1.00  0.00    -0.287 OA
ENDBRANCH   4   5
ENDBRANCH   3   4
ENDBRANCH   1   3
BRANCH   1  16
HETATM   16  C4  UNL     1      46.931  -2.433 102.427  1.00  0.00     0.037 C 
BRANCH  16  17
HETATM   17  C5  UNL     1      47.357  -2.139 103.864  1.00  0.00     0.003 C 
BRANCH  17  18
HETATM   18  C6  UNL     1      47.661  -3.382 104.716  1.00  0.00     0.004 C 
BRANCH  18  19
HETATM   19  C7  UNL     1      48.143  -3.201 106.175  1.00  0.00    -0.019 C 
HETATM   20  C19 UNL     1      48.187  -4.524 106.947  1.00  0.00     0.010 C 
BRANCH  19  21
HETATM   21  C8  UNL     1      47.372  -2.096 106.923  1.00  0.00     0.004 C 
BRANCH  21  22
HETATM   22  C9  UNL     1      47.995  -1.618 108.243  1.00  0.00     0.001 C 
BRANCH  22  23
HETATM   23  C10 UNL     1      49.069  -0.540 108.064  1.00  0.00     0.004 C 
BRANCH  23  24
HETATM   24  C11 UNL     1      48.852   0.410 106.863  1.00  0.00    -0.019 C 
HETATM   25  C18 UNL     1      49.789   0.061 105.702  1.00  0.00     0.010 C 
BRANCH  24  26
HETATM   26  C12 UNL     1      48.964   1.890 107.278  1.00  0.00     0.004 C 
BRANCH  26  27
HETATM   27  C13 UNL     1      50.386   2.452 107.146  1.00  0.00     0.001 C 
BRANCH  27  28
HETATM   28  C14 UNL     1      50.645   3.547 108.186  1.00  0.00     0.004 C 
BRANCH  28  29
HETATM   29  C15 UNL     1      51.206   3.058 109.534  1.00  0.00    -0.023 C 
HETATM   30  C16 UNL     1      50.116   2.900 110.596  1.00  0.00     0.009 C 
HETATM   31  C17 UNL     1      52.012   1.766 109.399  1.00  0.00     0.009 C 
ENDBRANCH  28  29
ENDBRANCH  27  28
ENDBRANCH  26  27
ENDBRANCH  24  26
ENDBRANCH  23  24
ENDBRANCH  22  23
ENDBRANCH  21  22
ENDBRANCH  19  21
ENDBRANCH  18  19
ENDBRANCH  17  18
ENDBRANCH  16  17
ENDBRANCH   1  16
BRANCH   1  32
HETATM   32  O1  UNL     1      47.578  -1.789 100.194  1.00  0.00    -0.390 OA
HETATM   33  H41 UNL     1      47.149  -0.956 100.463  1.00  0.00     0.210 HD
ENDBRANCH   1  32
TORSDOF 16
ENDMDL
