MODEL 1
REMARK VINA RESULT:      -7.9      0.000      0.000
REMARK  7 active torsions:
REMARK  status: ('A' for Active; 'I' for Inactive)
REMARK    1  A    between atoms: C12_13  and  C15_17 
REMARK    2  A    between atoms: C14_15  and  O2_16 
REMARK    3  A    between atoms: C15_17  and  C16_18 
REMARK    4  A    between atoms: C16_18  and  C17_19 
REMARK    5  A    between atoms: C17_19  and  C18_20 
REMARK    6  A    between atoms: C18_20  and  C21_23 
REMARK    7  A    between atoms: C21_23  and  C22_24 
ROOT
HETATM    1  C1  UNL     1      50.793   3.352 109.132  1.00  0.00    -0.024 C 
HETATM    2  C2  UNL     1      51.067   3.943 107.780  1.00  0.00     0.035 C 
HETATM    3  C3  UNL     1      50.163   3.347 106.687  1.00  0.00     0.032 C 
HETATM    4  C4  UNL     1      50.177   1.803 106.775  1.00  0.00     0.035 C 
HETATM    5  C5  UNL     1      49.591   1.390 108.150  1.00  0.00     0.043 C 
HETATM    6  C6  UNL     1      50.101   2.214 109.315  1.00  0.00    -0.087 C 
HETATM    7  C7  UNL     1      49.794   1.676 110.683  1.00  0.00     0.043 C 
HETATM    8  C8  UNL     1      50.478   3.825 105.256  1.00  0.00     0.065 C 
HETATM    9  O1  UNL     1      49.476   3.319 104.350  1.00  0.00    -0.340 OA
HETATM   10  C9  UNL     1      49.155   1.994 104.467  1.00  0.00     0.079 A 
HETATM   11  C10 UNL     1      49.472   1.194 105.575  1.00  0.00     0.013 A 
HETATM   12  C11 UNL     1      48.464   1.470 103.368  1.00  0.00     0.044 A 
HETATM   13  C12 UNL     1      48.121   0.117 103.316  1.00  0.00    -0.053 A 
HETATM   14  C13 UNL     1      48.485  -0.705 104.384  1.00  0.00     0.044 A 
HETATM   15  C14 UNL     1      49.163  -0.172 105.486  1.00  0.00     0.075 A 
HETATM   16  C19 UNL     1      51.870   3.433 104.731  1.00  0.00     0.046 C 
HETATM   17  C20 UNL     1      50.350   5.356 105.154  1.00  0.00     0.046 C 
ENDROOT
BRANCH  13  18
HETATM   18  C15 UNL     1      47.361  -0.437 102.138  1.00  0.00     0.039 C 
BRANCH  18  19
HETATM   19  C16 UNL     1      47.554   0.424 100.889  1.00  0.00     0.005 C 
BRANCH  19  20
HETATM   20  C17 UNL     1      48.874   0.097 100.188  1.00  0.00     0.000 C 
BRANCH  20  21
HETATM   21  C18 UNL     1      49.695   1.366  99.934  1.00  0.00     0.000 C 
BRANCH  21  22
HETATM   22  C21 UNL     1      51.063   1.345 100.625  1.00  0.00    -0.000 C 
BRANCH  22  23
HETATM   23  C22 UNL     1      51.335   0.100 101.474  1.00  0.00    -0.005 C 
HETATM   24  C23 UNL     1      52.024   0.379 102.798  1.00  0.00     0.005 C 
ENDBRANCH  22  23
ENDBRANCH  21  22
ENDBRANCH  20  21
ENDBRANCH  19  20
ENDBRANCH  18  19
ENDBRANCH  13  18
BRANCH  15  25
HETATM   25  O2  UNL     1      49.553  -1.019 106.487  1.00  0.00    -0.360 OA
HETATM   26  H13 UNL     1      49.214  -1.910 106.299  1.00  0.00     0.217 HD
ENDBRANCH  15  25
TORSDOF 7
ENDMDL
