MODEL 1
REMARK VINA RESULT:      -6.9      0.000      0.000
REMARK  5 active torsions:
REMARK  status: ('A' for Active; 'I' for Inactive)
REMARK    1  A    between atoms: O1_1  and  C7_12 
REMARK    2  A    between atoms: O2_3  and  C10_15 
REMARK    3  A    between atoms: O3_4  and  C13_18 
REMARK    4  A    between atoms: O4_6  and  C14_19 
REMARK    5  A    between atoms: O5_7  and  C17_22 
ROOT
HETATM    1  C1  UNL     1      51.549   2.734 103.539  1.00  0.00     0.047 C 
HETATM    2  C2  UNL     1      46.386  -0.303 106.053  1.00  0.00     0.046 C 
HETATM    3  C3  UNL     1      49.383   2.250  98.357  1.00  0.00     0.021 C 
HETATM    4  C4  UNL     1      49.560   4.696  98.842  1.00  0.00     0.021 C 
HETATM    5  C5  UNL     1      48.149   0.682 102.863  1.00  0.00    -0.002 C 
HETATM    6  C6  UNL     1      49.301   1.502 103.592  1.00  0.00     0.031 C 
HETATM    7  C7  UNL     1      48.484  -0.829 102.930  1.00  0.00     0.134 C 
HETATM    8  C8  UNL     1      47.799   1.097 101.403  1.00  0.00     0.047 C 
HETATM    9  C9  UNL     1      46.847   0.775 103.755  1.00  0.00     0.050 C 
HETATM   10  C10 UNL     1      50.680   1.660 102.845  1.00  0.00     0.068 C 
HETATM   11  C11 UNL     1      49.478   0.986 105.058  1.00  0.00     0.009 C 
HETATM   12  C12 UNL     1      48.212  -1.147 104.404  1.00  0.00     0.049 C 
HETATM   13  C13 UNL     1      47.983   2.568 101.035  1.00  0.00     0.154 C 
HETATM   14  C14 UNL     1      46.820  -0.511 104.607  1.00  0.00     0.061 C 
HETATM   15  C15 UNL     1      50.520   1.942 101.329  1.00  0.00     0.089 C 
HETATM   16  C16 UNL     1      49.332  -0.528 105.243  1.00  0.00     0.011 C 
HETATM   17  C17 UNL     1      49.466   3.016 100.871  1.00  0.00     0.102 C 
HETATM   18  C18 UNL     1      51.801   2.342 100.617  1.00  0.00     0.162 A 
HETATM   19  C19 UNL     1      49.920   3.297  99.361  1.00  0.00     0.015 C 
HETATM   20  C20 UNL     1      51.434   3.137  99.412  1.00  0.00     0.162 A 
HETATM   21  O6  UNL     1      52.099   3.740 100.524  1.00  0.00    -0.374 OA
ENDROOT
BRANCH  10  22
HETATM   22  O2  UNL     1      51.418   0.434 103.022  1.00  0.00    -0.389 OA
HETATM   23  H5  UNL     1      51.581   0.011 102.165  1.00  0.00     0.210 HD
ENDBRANCH  10  22
BRANCH  17  24
HETATM   24  O5  UNL     1      49.609   4.198 101.691  1.00  0.00    -0.386 OA
HETATM   25  H11 UNL     1      49.083   4.083 102.503  1.00  0.00     0.210 HD
ENDBRANCH  17  24
BRANCH   7  26
HETATM   26  O1  UNL     1      47.658  -1.603 102.062  1.00  0.00    -0.394 OA
HETATM   27  H1  UNL     1      47.333  -2.371 102.580  1.00  0.00     0.210 HD
ENDBRANCH   7  26
BRANCH  13  28
HETATM   28  O3  UNL     1      47.290   3.375 102.000  1.00  0.00    -0.392 OA
HETATM   29  H6  UNL     1      47.616   3.083 102.876  1.00  0.00     0.210 HD
ENDBRANCH  13  28
BRANCH  14  30
HETATM   30  O4  UNL     1      45.859  -1.405 104.005  1.00  0.00    -0.390 OA
HETATM   31  H10 UNL     1      44.977  -1.003 104.110  1.00  0.00     0.210 HD
ENDBRANCH  14  30
TORSDOF 5
ENDMDL
