MODEL 1
REMARK VINA RESULT:      -8.0      0.000      0.000
REMARK  5 active torsions:
REMARK  status: ('A' for Active; 'I' for Inactive)
REMARK    1  A    between atoms: N1_1  and  C1_2 
REMARK    2  A    between atoms: N1_1  and  C9_14 
REMARK    3  A    between atoms: C2_4  and  N4_8 
REMARK    4  A    between atoms: C10_17  and  C12_19 
REMARK    5  A    between atoms: C15_22  and  O3_25 
ROOT
HETATM    1  N1  UNL     1      49.785   4.523 101.694  1.00  0.00    -0.319 N 
HETATM    2  H1  UNL     1      48.844   4.364 101.348  1.00  0.00     0.169 HD
ENDROOT
BRANCH   1   3
HETATM    3  C1  UNL     1      50.619   4.747 100.599  1.00  0.00     0.150 A 
HETATM    4  N2  UNL     1      50.878   6.049 100.369  1.00  0.00    -0.045 NA
HETATM    5  C2  UNL     1      51.671   6.393  99.338  1.00  0.00     0.726 A 
HETATM    6  N3  UNL     1      52.224   5.482  98.527  1.00  0.00    -0.075 NA
HETATM    7  C3  UNL     1      51.956   4.191  98.774  1.00  0.00     0.140 A 
HETATM    8  C4  UNL     1      51.154   3.766  99.801  1.00  0.00     0.071 A 
BRANCH   5   9
HETATM    9  N4  UNL     1      51.946   7.730  99.131  1.00  0.00    -0.210 N 
HETATM   10  C5  UNL     1      50.837   8.651  98.866  1.00  0.00     0.167 C 
HETATM   11  C6  UNL     1      50.854   9.801  99.888  1.00  0.00     0.188 C 
HETATM   12  O1  UNL     1      52.077  10.556  99.897  1.00  0.00    -0.388 OA
HETATM   13  C7  UNL     1      53.225   9.789  99.499  1.00  0.00     0.188 C 
HETATM   14  C8  UNL     1      53.105   8.293  99.824  1.00  0.00     0.167 C 
ENDBRANCH   5   9
ENDBRANCH   1   3
BRANCH   1  15
HETATM   15  C9  UNL     1      50.029   4.488 103.016  1.00  0.00     0.176 A 
HETATM   16  O2  UNL     1      50.535   5.565 103.668  1.00  0.00    -0.195 OA
HETATM   17  N5  UNL     1      50.698   5.278 105.005  1.00  0.00    -0.126 NA
HETATM   18  C10 UNL     1      50.286   4.011 105.176  1.00  0.00     0.099 A 
HETATM   19  C11 UNL     1      49.855   3.477 103.931  1.00  0.00     0.093 A 
BRANCH  18  20
HETATM   20  C12 UNL     1      50.316   3.360 106.492  1.00  0.00    -0.005 A 
HETATM   21  C13 UNL     1      50.767   4.055 107.623  1.00  0.00     0.016 A 
HETATM   22  C14 UNL     1      50.799   3.437 108.877  1.00  0.00     0.037 A 
HETATM   23  C15 UNL     1      50.382   2.115 109.031  1.00  0.00     0.068 A 
HETATM   24  C16 UNL     1      49.931   1.413 107.916  1.00  0.00     0.037 A 
HETATM   25  C17 UNL     1      49.898   2.031 106.657  1.00  0.00     0.016 A 
BRANCH  23  26
HETATM   26  O3  UNL     1      50.466   1.633 110.309  1.00  0.00    -0.356 OA
HETATM   27  C18 UNL     1      50.347   2.577 111.364  1.00  0.00     0.210 C 
ENDBRANCH  23  26
ENDBRANCH  18  20
ENDBRANCH   1  15
TORSDOF 5
ENDMDL
