MODEL 1
REMARK VINA RESULT:      -9.4      0.000      0.000
REMARK  3 active torsions:
REMARK  status: ('A' for Active; 'I' for Inactive)
REMARK    1  A    between atoms: N2_5  and  C5_7 
REMARK    2  A    between atoms: C6_8  and  C7_9 
REMARK    3  A    between atoms: C7_9  and  C8_10 
ROOT
HETATM    1  C1  UNL     1      47.149  -1.822 107.758  1.00  0.00     0.303 A 
HETATM    2  N1  UNL     1      46.899  -1.718 106.354  1.00  0.00     0.101 N 
HETATM    3  C2  UNL     1      47.065  -0.325 105.997  1.00  0.00     0.303 A 
HETATM    4  C3  UNL     1      48.333   0.302 106.469  1.00  0.00     0.303 C 
HETATM    5  N2  UNL     1      48.535   0.095 107.895  1.00  0.00     0.096 N 
HETATM    6  C4  UNL     1      48.555  -1.321 108.103  1.00  0.00     0.303 C 
HETATM    7  C6  UNL     1      47.614  -2.613 105.518  1.00  0.00     0.260 A 
HETATM    8  C9  UNL     1      47.306  -2.234 104.103  1.00  0.00    -0.025 A 
HETATM    9  C10 UNL     1      45.991  -2.013 103.741  1.00  0.00     0.009 A 
HETATM   10  C11 UNL     1      45.631  -1.673 102.462  1.00  0.00     0.001 A 
HETATM   11  C12 UNL     1      46.607  -1.544 101.511  1.00  0.00     0.000 A 
HETATM   12  C13 UNL     1      47.938  -1.751 101.817  1.00  0.00     0.001 A 
HETATM   13  C14 UNL     1      48.261  -2.095 103.123  1.00  0.00     0.009 A 
HETATM   14 CL1  UNL     1      47.312  -1.605 106.015  1.00  0.00    -0.145 Cl
HETATM   15 CL2  UNL     1      47.312  -1.606 106.015  1.00  0.00    -0.145 Cl
HETATM   16  H33 UNL     1      48.002  -0.829 106.907  1.00  0.00     0.145 HD
HETATM   17  H34 UNL     1      48.003  -0.828 106.908  1.00  0.00     0.145 HD
ENDROOT
BRANCH   7  18
HETATM   18  C7  UNL     1      47.356  -4.075 105.735  1.00  0.00     0.079 C 
BRANCH  18  19
HETATM   19  C8  UNL     1      48.549  -4.938 105.724  1.00  0.00    -0.056 A 
HETATM   20  C15 UNL     1      49.377  -5.082 106.809  1.00  0.00     0.007 A 
HETATM   21  C16 UNL     1      50.503  -5.891 106.789  1.00  0.00     0.001 A 
HETATM   22  C17 UNL     1      50.806  -6.577 105.641  1.00  0.00     0.000 A 
HETATM   23  C18 UNL     1      49.991  -6.445 104.546  1.00  0.00     0.001 A 
HETATM   24  C19 UNL     1      48.876  -5.638 104.580  1.00  0.00     0.007 A 
ENDBRANCH  18  19
ENDBRANCH   7  18
BRANCH   5  25
HETATM   25  C5  UNL     1      49.692   0.808 108.366  1.00  0.00     0.223 C 
HETATM   26  C20 UNL     1      49.526   2.316 108.150  1.00  0.00     0.036 C 
HETATM   27  C21 UNL     1      50.633   3.000 108.918  1.00  0.00     0.002 C 
HETATM   28  C22 UNL     1      50.313   2.991 110.400  1.00  0.00     0.000 C 
HETATM   29  C23 UNL     1      49.624   1.677 110.724  1.00  0.00     0.002 C 
HETATM   30  C24 UNL     1      50.108   0.582 109.761  1.00  0.00     0.036 C 
ENDBRANCH   5  25
TORSDOF 3
ENDMDL
