MODEL 1
REMARK VINA RESULT:      -7.0      0.000      0.000
REMARK  17 active torsions:
REMARK  status: ('A' for Active; 'I' for Inactive)
REMARK    1  A    between atoms: C1_1  and  C5_5 
REMARK    2  A    between atoms: C2_2  and  C9_9 
REMARK    3  A    between atoms: C3_3  and  C6_6 
REMARK    4  A    between atoms: C4_4  and  C5_5 
REMARK    5  A    between atoms: C6_6  and  C7_7 
REMARK    6  A    between atoms: C8_8  and  C12_12 
REMARK    7  A    between atoms: C9_9  and  C10_10 
REMARK    8  A    between atoms: C11_11  and  C16_17 
REMARK    9  A    between atoms: C12_12  and  C13_13 
REMARK   10  A    between atoms: C13_13  and  C14_14 
REMARK   11  A    between atoms: C14_14  and  C15_15 
REMARK       I    between atoms: C15_15  and  N1_16 
REMARK   12  A    between atoms: N1_16  and  C21_22 
REMARK   13  A    between atoms: C16_17  and  C17_18 
REMARK   14  A    between atoms: C17_18  and  C18_19 
REMARK   15  A    between atoms: C18_19  and  C19_20 
REMARK   16  A    between atoms: C21_22  and  C22_23 
REMARK   17  A    between atoms: C22_23  and  O1_24 
ROOT
HETATM    1  C6  UNL     1      50.805   4.404 104.433  1.00  0.00     0.053 C 
ENDROOT
BRANCH   1   2
HETATM    2  C3  UNL     1      50.365   4.970 105.753  1.00  0.00    -0.027 C 
HETATM    3  C4  UNL     1      50.572   4.462 106.980  1.00  0.00    -0.027 C 
BRANCH   3   4
HETATM    4  C5  UNL     1      51.264   3.178 107.343  1.00  0.00     0.053 C 
BRANCH   4   5
HETATM    5  C1  UNL     1      51.928   3.295 108.686  1.00  0.00    -0.027 C 
HETATM    6  C2  UNL     1      51.368   3.136 109.896  1.00  0.00    -0.027 C 
BRANCH   6   7
HETATM    7  C9  UNL     1      49.946   2.761 110.211  1.00  0.00     0.053 C 
BRANCH   7   8
HETATM    8  C10 UNL     1      49.812   1.282 110.441  1.00  0.00    -0.027 C 
HETATM    9  C11 UNL     1      49.515   0.329 109.543  1.00  0.00    -0.030 C 
BRANCH   9  10
HETATM   10  C16 UNL     1      49.262   0.498 108.069  1.00  0.00     0.027 C 
BRANCH  10  11
HETATM   11  C17 UNL     1      49.026  -0.825 107.337  1.00  0.00     0.004 C 
BRANCH  11  12
HETATM   12  C18 UNL     1      47.725  -0.925 106.531  1.00  0.00    -0.000 C 
BRANCH  12  13
HETATM   13  C19 UNL     1      46.636  -1.737 107.231  1.00  0.00    -0.005 C 
HETATM   14  C20 UNL     1      47.207  -2.563 108.373  1.00  0.00     0.005 C 
ENDBRANCH  12  13
ENDBRANCH  11  12
ENDBRANCH  10  11
ENDBRANCH   9  10
ENDBRANCH   7   8
ENDBRANCH   6   7
ENDBRANCH   4   5
ENDBRANCH   3   4
ENDBRANCH   1   2
BRANCH   1  15
HETATM   15  C7  UNL     1      49.659   3.734 103.730  1.00  0.00    -0.027 C 
HETATM   16  C8  UNL     1      49.315   2.435 103.760  1.00  0.00    -0.030 C 
BRANCH  16  17
HETATM   17  C12 UNL     1      49.985   1.320 104.513  1.00  0.00     0.027 C 
BRANCH  17  18
HETATM   18  C13 UNL     1      50.491   0.206 103.593  1.00  0.00     0.013 C 
BRANCH  18  19
HETATM   19  C14 UNL     1      51.824   0.551 102.923  1.00  0.00     0.103 C 
BRANCH  19  20
HETATM   20  C15 UNL     1      51.634   1.072 101.512  1.00  0.00     0.217 C 
HETATM   21  N1  UNL     1      52.153   2.336 101.335  1.00  0.00    -0.359 N 
HETATM   22  H21 UNL     1      52.371   2.891 102.154  1.00  0.00     0.162 HD
HETATM   23  O2  UNL     1      51.083   0.441 100.616  1.00  0.00    -0.274 OA
BRANCH  21  24
HETATM   24  C21 UNL     1      51.963   3.055 100.090  1.00  0.00     0.148 C 
BRANCH  24  25
HETATM   25  C22 UNL     1      53.029   2.672  99.069  1.00  0.00     0.183 C 
BRANCH  25  26
HETATM   26  O1  UNL     1      54.263   3.322  99.375  1.00  0.00    -0.399 OA
HETATM   27  H37 UNL     1      54.591   2.942 100.209  1.00  0.00     0.209 HD
ENDBRANCH  25  26
ENDBRANCH  24  25
ENDBRANCH  21  24
ENDBRANCH  19  20
ENDBRANCH  18  19
ENDBRANCH  17  18
ENDBRANCH  16  17
ENDBRANCH   1  15
TORSDOF 17
ENDMDL
