MODEL 1
REMARK VINA RESULT:      -5.5      0.000      0.000
REMARK  20 active torsions:
REMARK  status: ('A' for Active; 'I' for Inactive)
REMARK    1  A    between atoms: C1_1  and  C2_2 
REMARK    2  A    between atoms: C1_1  and  C6_6 
REMARK    3  A    between atoms: C2_2  and  C3_3 
REMARK    4  A    between atoms: C3_3  and  C4_4 
REMARK    5  A    between atoms: C4_4  and  C12_12 
REMARK    6  A    between atoms: C5_5  and  C6_6 
REMARK    7  A    between atoms: C5_5  and  C7_7 
REMARK    8  A    between atoms: C7_7  and  C8_8 
REMARK    9  A    between atoms: C8_8  and  C9_9 
REMARK   10  A    between atoms: C9_9  and  C10_10 
REMARK   11  A    between atoms: C12_12  and  C13_13 
REMARK   12  A    between atoms: C13_13  and  C14_14 
REMARK   13  A    between atoms: C14_14  and  C15_15 
REMARK   14  A    between atoms: C15_15  and  C16_16 
REMARK   15  A    between atoms: C16_16  and  O1_17 
REMARK   16  A    between atoms: O1_17  and  C17_18 
REMARK   17  A    between atoms: C17_18  and  C18_19 
REMARK   18  A    between atoms: C18_19  and  C19_20 
REMARK   19  A    between atoms: C18_19  and  O3_22 
REMARK   20  A    between atoms: C19_20  and  O2_21 
ROOT
HETATM    1  C12 UNL     1      50.151   3.822 105.245  1.00  0.00     0.000 C 
ENDROOT
BRANCH   1   2
HETATM    2  C4  UNL     1      50.712   4.619 106.428  1.00  0.00     0.000 C 
BRANCH   2   3
HETATM    3  C3  UNL     1      50.531   3.914 107.775  1.00  0.00     0.000 C 
BRANCH   3   4
HETATM    4  C2  UNL     1      51.844   3.414 108.389  1.00  0.00     0.000 C 
BRANCH   4   5
HETATM    5  C1  UNL     1      51.688   2.893 109.819  1.00  0.00     0.000 C 
BRANCH   5   6
HETATM    6  C6  UNL     1      50.270   3.054 110.377  1.00  0.00     0.000 C 
BRANCH   6   7
HETATM    7  C5  UNL     1      49.556   1.759 110.782  1.00  0.00     0.000 C 
BRANCH   7   8
HETATM    8  C7  UNL     1      50.113   0.516 110.083  1.00  0.00     0.000 C 
BRANCH   8   9
HETATM    9  C8  UNL     1      49.247   0.038 108.913  1.00  0.00     0.000 C 
BRANCH   9  10
HETATM   10  C9  UNL     1      49.844   0.369 107.543  1.00  0.00    -0.000 C 
BRANCH  10  11
HETATM   11  C10 UNL     1      48.759   0.434 106.469  1.00  0.00    -0.005 C 
HETATM   12  C11 UNL     1      49.270  -0.065 105.126  1.00  0.00     0.005 C 
ENDBRANCH  10  11
ENDBRANCH   9  10
ENDBRANCH   8   9
ENDBRANCH   7   8
ENDBRANCH   6   7
ENDBRANCH   5   6
ENDBRANCH   4   5
ENDBRANCH   3   4
ENDBRANCH   2   3
ENDBRANCH   1   2
BRANCH   1  13
HETATM   13  C13 UNL     1      49.593   4.649 104.083  1.00  0.00     0.000 C 
BRANCH  13  14
HETATM   14  C14 UNL     1      49.431   3.849 102.790  1.00  0.00     0.002 C 
BRANCH  14  15
HETATM   15  C15 UNL     1      48.042   3.217 102.701  1.00  0.00     0.026 C 
BRANCH  15  16
HETATM   16  C16 UNL     1      48.088   1.858 102.008  1.00  0.00     0.167 C 
BRANCH  16  17
HETATM   17  O1  UNL     1      49.382   1.262 102.098  1.00  0.00    -0.389 OA
BRANCH  17  18
HETATM   18  C17 UNL     1      49.807   0.624 100.887  1.00  0.00     0.201 C 
BRANCH  18  19
HETATM   19  C18 UNL     1      51.338   0.679 100.788  1.00  0.00     0.168 C 
BRANCH  19  20
HETATM   20  C19 UNL     1      51.922   1.297 102.065  1.00  0.00     0.198 C 
BRANCH  20  21
HETATM   21  O2  UNL     1      52.147   0.276 103.037  1.00  0.00    -0.398 OA
HETATM   22  H39 UNL     1      51.269   0.112 103.435  1.00  0.00     0.209 HD
ENDBRANCH  20  21
ENDBRANCH  19  20
BRANCH  19  23
HETATM   23  O3  UNL     1      51.800   1.521  99.707  1.00  0.00    -0.386 OA
HETATM   24  C20 UNL     1      52.400   2.733 100.152  1.00  0.00     0.202 C 
ENDBRANCH  19  23
ENDBRANCH  18  19
ENDBRANCH  17  18
ENDBRANCH  16  17
ENDBRANCH  15  16
ENDBRANCH  14  15
ENDBRANCH  13  14
ENDBRANCH   1  13
TORSDOF 20
ENDMDL
