MODEL 1
REMARK VINA RESULT:      -6.1      0.000      0.000
REMARK  15 active torsions:
REMARK  status: ('A' for Active; 'I' for Inactive)
REMARK    1  A    between atoms: C1_1  and  C2_2 
REMARK    2  A    between atoms: C1_1  and  C3_3 
REMARK    3  A    between atoms: C4_4  and  C6_6 
REMARK    4  A    between atoms: C5_5  and  C11_11 
REMARK    5  A    between atoms: C6_6  and  C7_7 
REMARK    6  A    between atoms: C7_7  and  C8_8 
REMARK    7  A    between atoms: C8_8  and  C9_9 
REMARK    8  A    between atoms: C9_9  and  C10_10 
REMARK    9  A    between atoms: C10_10  and  P1_19 
REMARK   10  A    between atoms: C11_11  and  C12_12 
REMARK   11  A    between atoms: C13_13  and  C14_14 
REMARK   12  A    between atoms: C14_14  and  C15_15 
REMARK   13  A    between atoms: C15_15  and  C16_16 
REMARK   14  A    between atoms: C16_16  and  C17_17 
REMARK   15  A    between atoms: P1_19  and  O2_22 
ROOT
HETATM    1  C2  UNL     1      49.786   1.010 110.285  1.00  0.00    -0.027 C 
HETATM    2  C4  UNL     1      49.464   0.139 109.314  1.00  0.00    -0.030 C 
ENDROOT
BRANCH   1   3
HETATM    3  C1  UNL     1      49.700   2.509 110.235  1.00  0.00     0.053 C 
BRANCH   3   4
HETATM    4  C3  UNL     1      51.067   3.122 110.119  1.00  0.00    -0.027 C 
HETATM    5  C5  UNL     1      51.784   3.320 109.000  1.00  0.00    -0.027 C 
BRANCH   5   6
HETATM    6  C11 UNL     1      51.379   3.025 107.584  1.00  0.00     0.053 C 
BRANCH   6   7
HETATM    7  C12 UNL     1      50.478   4.102 107.051  1.00  0.00    -0.027 C 
HETATM    8  C13 UNL     1      50.394   4.554 105.789  1.00  0.00    -0.030 C 
BRANCH   8   9
HETATM    9  C14 UNL     1      51.204   4.106 104.605  1.00  0.00     0.027 C 
BRANCH   9  10
HETATM   10  C15 UNL     1      50.350   3.756 103.382  1.00  0.00     0.004 C 
BRANCH  10  11
HETATM   11  C16 UNL     1      51.020   2.748 102.443  1.00  0.00    -0.000 C 
BRANCH  11  12
HETATM   12  C17 UNL     1      52.163   1.972 103.105  1.00  0.00    -0.005 C 
HETATM   13  C18 UNL     1      52.209   0.505 102.712  1.00  0.00     0.005 C 
ENDBRANCH  11  12
ENDBRANCH  10  11
ENDBRANCH   9  10
ENDBRANCH   8   9
ENDBRANCH   6   7
ENDBRANCH   5   6
ENDBRANCH   3   4
ENDBRANCH   1   3
BRANCH   2  14
HETATM   14  C6  UNL     1      48.996   0.466 107.925  1.00  0.00     0.027 C 
BRANCH  14  15
HETATM   15  C7  UNL     1      49.662  -0.388 106.840  1.00  0.00     0.004 C 
BRANCH  15  16
HETATM   16  C8  UNL     1      49.961   0.330 105.519  1.00  0.00     0.001 C 
BRANCH  16  17
HETATM   17  C9  UNL     1      48.743   0.708 104.673  1.00  0.00     0.012 C 
BRANCH  17  18
HETATM   18  C10 UNL     1      48.010  -0.461 104.018  1.00  0.00     0.137 C 
BRANCH  18  19
HETATM   19  P1  UNL     1      46.371  -0.788 104.662  1.00  0.00     0.365 P 
HETATM   20  O1  UNL     1      45.256  -0.318 103.775  1.00  0.00    -0.254 OA
HETATM   21  F1  UNL     1      46.176  -0.228 106.118  1.00  0.00    -0.156 F 
BRANCH  19  22
HETATM   22  O2  UNL     1      46.336  -2.390 104.887  1.00  0.00    -0.316 OA
HETATM   23  C19 UNL     1      47.318  -2.986 105.707  1.00  0.00     0.213 C 
ENDBRANCH  19  22
ENDBRANCH  18  19
ENDBRANCH  17  18
ENDBRANCH  16  17
ENDBRANCH  15  16
ENDBRANCH  14  15
ENDBRANCH   2  14
TORSDOF 15
ENDMDL
