MODEL 1
REMARK VINA RESULT:      -9.3      0.000      0.000
REMARK  UMBRALISIB
REMARK  7 active torsions:
REMARK  status: ('A' for Active; 'I' for Inactive)
REMARK    1  A    between atoms: O_6  and  C_36 
REMARK    2  A    between atoms: O_6  and  C_40 
REMARK    3  A    between atoms: N_7  and  C_12 
REMARK    4  A    between atoms: N_11  and  C_24 
REMARK    5  A    between atoms: C_12  and  C_13 
REMARK    6  A    between atoms: C_15  and  C_23 
REMARK    7  A    between atoms: C_18  and  C_22 
ROOT
ATOM      1  F           0      52.096   3.340 109.830  0.00  0.00    -0.204 F 
ATOM      2  O           0      48.363   0.306 107.173  0.00  0.00    -0.309 OA
ATOM      3  O           0      50.968   2.509 104.956  0.00  0.00    -0.286 OA
ATOM      4  C           0      48.306   0.288 105.785  0.00  0.00     0.103 A 
ATOM      5  C           0      49.135   0.993 104.985  0.00  0.00     0.060 A 
ATOM      6  C           0      50.183   1.844 105.620  0.00  0.00     0.199 A 
ATOM      7  C           0      50.228   1.850 107.087  0.00  0.00     0.064 A 
ATOM      8  C           0      49.310   1.077 107.790  0.00  0.00     0.103 A 
ATOM      9  C           0      51.173   2.619 107.771  0.00  0.00     0.035 A 
ATOM     10  C           0      49.331   1.065 109.185  0.00  0.00     0.027 A 
ATOM     11  C           0      51.194   2.605 109.167  0.00  0.00     0.140 A 
ATOM     12  C           0      50.273   1.830 109.873  0.00  0.00     0.032 A 
ENDROOT
BRANCH   5  13
ATOM     13  C           0      49.039   0.944 103.533  0.00  0.00     0.007 A 
ATOM     14  C           0      49.865   0.083 102.808  0.00  0.00     0.030 A 
ATOM     15  C           0      49.773   0.036 101.417  0.00  0.00     0.140 A 
ATOM     16  F           0      50.567  -0.789 100.723  0.00  0.00    -0.204 F 
ATOM     17  C           0      48.856   0.848 100.750  0.00  0.00     0.030 A 
ATOM     18  C           0      48.030   1.708 101.474  0.00  0.00     0.002 A 
ATOM     19  C           0      48.121   1.755 102.866  0.00  0.00     0.000 A 
ENDBRANCH   5  13
BRANCH   4  20
ATOM     20  C           0      47.204  -0.610 105.295  0.00  0.00     0.152 C 
ATOM     21  C           0      45.945  -0.460 106.152  0.00  0.00     0.034 C 
BRANCH  20  22
ATOM     22  N           0      47.657  -2.054 105.208  0.00  0.00    -0.230 N 
ATOM     23  N           0      47.991  -2.714 106.333  0.00  0.00    -0.168 NA
ATOM     24  C           0      48.336  -3.928 105.890  0.00  0.00     0.107 A 
ATOM     25  C           0      48.226  -4.049 104.492  0.00  0.00     0.088 A 
ATOM     26  C           0      47.779  -2.807 104.077  0.00  0.00     0.166 A 
ATOM     27  C           0      48.430  -5.009 103.507  0.00  0.00     0.140 A 
ATOM     28  N           0      47.519  -2.420 102.819  0.00  0.00    -0.205 NA
ATOM     29  C           0      47.754  -3.430 101.954  0.00  0.00     0.202 A 
ATOM     30  N           0      48.188  -4.687 102.214  0.00  0.00    -0.207 NA
BRANCH  24  31
ATOM     31  C           0      48.766  -4.936 106.826  0.00  0.00     0.022 A 
ATOM     32  C           0      47.908  -5.354 107.844  0.00  0.00     0.033 A 
ATOM     33  C           0      48.325  -6.329 108.750  0.00  0.00     0.162 A 
ATOM     34  F           0      47.496  -6.727 109.726  0.00  0.00    -0.202 F 
ATOM     35  C           0      49.600  -6.886 108.639  0.00  0.00     0.121 A 
ATOM     36  C           0      50.457  -6.467 107.622  0.00  0.00     0.026 A 
ATOM     37  C           0      50.040  -5.492 106.715  0.00  0.00     0.004 A 
BRANCH  35  38
ATOM     38  O           0      50.006  -7.839 109.522  0.00  0.00    -0.331 OA
BRANCH  38  39
ATOM     39  C           0      50.885  -7.424 110.565  0.00  0.00     0.122 C 
ATOM     40  C           0      52.091  -8.350 110.602  0.00  0.00     0.033 C 
ATOM     41  C           0      50.131  -7.423 111.886  0.00  0.00     0.033 C 
ENDBRANCH  38  39
ENDBRANCH  35  38
ENDBRANCH  24  31
BRANCH  27  42
ATOM     42  N           0      48.882  -6.301 103.828  0.00  0.00    -0.383 N 
ATOM     43  H           0      48.430  -7.123 103.459  0.00  0.00     0.157 HD
ATOM     44  H           0      49.679  -6.398 104.444  0.00  0.00     0.157 HD
ENDBRANCH  27  42
ENDBRANCH  20  22
ENDBRANCH   4  20
TORSDOF 7
ENDMDL
