MODEL 1
REMARK VINA RESULT:      -9.4      0.000      0.000
REMARK  DUVELISIB
REMARK  4 active torsions:
REMARK  status: ('A' for Active; 'I' for Inactive)
REMARK    1  A    between atoms: N_3  and  C_16 
REMARK    2  A    between atoms: N_4  and  C_9 
REMARK    3  A    between atoms: N_4  and  C_17 
REMARK    4  A    between atoms: C_9  and  C_10 
ROOT
ATOM      1 Cl           0      49.066  -0.814 109.357  0.00  0.00    -0.082 Cl
ATOM      2  O           0      49.329  -0.424 106.733  0.00  0.00    -0.267 OA
ATOM      3  N           0      49.872   1.496 105.478  0.00  0.00    -0.277 N 
ATOM      4  C           0      50.245   2.853 105.515  0.00  0.00     0.064 A 
ATOM      5  C           0      50.404   3.504 106.681  0.00  0.00     0.015 A 
ATOM      6  C           0      50.195   2.829 107.952  0.00  0.00     0.007 A 
ATOM      7  C           0      49.795   1.493 107.961  0.00  0.00     0.067 A 
ATOM      8  C           0      49.626   0.769 106.676  0.00  0.00     0.265 A 
ATOM      9  C           0      50.369   3.508 109.164  0.00  0.00     0.000 A 
ATOM     10  C           0      49.570   0.835 109.178  0.00  0.00     0.062 A 
ATOM     11  C           0      50.146   2.852 110.375  0.00  0.00     0.001 A 
ATOM     12  C           0      49.746   1.518 110.381  0.00  0.00     0.012 A 
ENDROOT
BRANCH   3  13
ATOM     13  C           0      49.736   0.761 104.245  0.00  0.00     0.067 A 
ATOM     14  C           0      48.502   0.211 103.894  0.00  0.00     0.018 A 
ATOM     15  C           0      48.370  -0.501 102.701  0.00  0.00     0.002 A 
ATOM     16  C           0      49.472  -0.662 101.860  0.00  0.00     0.000 A 
ATOM     17  C           0      50.704  -0.113 102.212  0.00  0.00     0.002 A 
ATOM     18  C           0      50.836   0.599 103.404  0.00  0.00     0.018 A 
ENDBRANCH   3  13
BRANCH   4  19
ATOM     19  C           0      50.362   3.650 104.239  0.00  0.00     0.118 C 
ATOM     20  C           0      50.902   5.044 104.502  0.00  0.00     0.030 C 
BRANCH  19  21
ATOM     21  N           0      49.053   3.733 103.645  0.00  0.00    -0.354 N 
ATOM     22  H           0      48.267   3.989 104.233  0.00  0.00     0.162 HD
BRANCH  21  23
ATOM     23  C           0      48.787   3.436 102.315  0.00  0.00     0.158 A 
ATOM     24  N           0      49.753   3.544 101.375  0.00  0.00    -0.206 NA
ATOM     25  C           0      49.419   3.237 100.099  0.00  0.00     0.202 A 
ATOM     26  N           0      48.228   2.828  99.610  0.00  0.00    -0.203 NA
ATOM     27  C           0      47.282   2.730 100.574  0.00  0.00     0.184 A 
ATOM     28  N           0      45.979   2.341 100.392  0.00  0.00    -0.205 NA
ATOM     29  C           0      47.534   3.024 101.907  0.00  0.00     0.128 A 
ATOM     30  C           0      45.444   2.396 101.594  0.00  0.00     0.177 A 
ATOM     31  N           0      46.346   2.804 102.542  0.00  0.00    -0.332 N 
ATOM     32  H           0      46.160   2.919 103.529  0.00  0.00     0.168 HD
ENDBRANCH  21  23
ENDBRANCH  19  21
ENDBRANCH   4  19
TORSDOF 4
ENDMDL
