MODEL 1
REMARK VINA RESULT:      -7.7      0.000      0.000
REMARK  TG100-115
REMARK  6 active torsions:
REMARK  status: ('A' for Active; 'I' for Inactive)
REMARK    1  A    between atoms: O_1  and  C_20 
REMARK    2  A    between atoms: O_2  and  C_21 
REMARK    3  A    between atoms: N_7  and  C_19 
REMARK    4  A    between atoms: N_8  and  C_26 
REMARK    5  A    between atoms: C_9  and  C_11 
REMARK    6  A    between atoms: C_10  and  C_12 
ROOT
ATOM      1  O           0      44.279  -0.388 103.535  0.00  0.00    -0.359 OA
ATOM      2  H           0      44.062   0.349 104.131  0.00  0.00     0.217 HD
ENDROOT
BRANCH   1   3
ATOM      3  C           0      45.619  -0.620 103.589  0.00  0.00     0.089 A 
ATOM      4  C           0      46.357  -0.191 104.692  0.00  0.00     0.025 A 
ATOM      5  C           0      47.732  -0.426 104.749  0.00  0.00     0.021 A 
ATOM      6  C           0      48.366  -1.093 103.698  0.00  0.00     0.002 A 
ATOM      7  C           0      47.628  -1.521 102.594  0.00  0.00     0.002 A 
ATOM      8  C           0      46.254  -1.285 102.541  0.00  0.00     0.024 A 
BRANCH   5   9
ATOM      9  C           0      48.496   0.015 105.891  0.00  0.00     0.099 A 
ATOM     10  N           0      49.060   1.227 105.761  0.00  0.00    -0.238 NA
ATOM     11  C           0      49.785   1.682 106.800  0.00  0.00     0.151 A 
ATOM     12  C           0      49.956   0.943 107.972  0.00  0.00     0.202 A 
ATOM     13  C           0      50.406   2.917 106.767  0.00  0.00     0.173 A 
ATOM     14  N           0      49.382  -0.262 108.071  0.00  0.00    -0.223 NA
ATOM     15  N           0      50.683   1.418 108.991  0.00  0.00    -0.041 NA
ATOM     16  C           0      48.656  -0.720 107.034  0.00  0.00     0.101 A 
ATOM     17  C           0      51.239   2.635 108.841  0.00  0.00     0.724 A 
ATOM     18  N           0      51.143   3.429 107.768  0.00  0.00    -0.043 NA
BRANCH  16  19
ATOM     19  C           0      48.076  -2.027 107.232  0.00  0.00     0.021 A 
ATOM     20  C           0      48.704  -3.158 106.709  0.00  0.00     0.025 A 
ATOM     21  C           0      48.142  -4.421 106.899  0.00  0.00     0.089 A 
ATOM     22  C           0      46.951  -4.555 107.613  0.00  0.00     0.024 A 
ATOM     23  C           0      46.322  -3.425 108.137  0.00  0.00     0.002 A 
ATOM     24  C           0      46.884  -2.162 107.946  0.00  0.00     0.002 A 
BRANCH  21  25
ATOM     25  O           0      48.757  -5.524 106.391  0.00  0.00    -0.359 OA
ATOM     26  H           0      48.105  -6.047 105.893  0.00  0.00     0.217 HD
ENDBRANCH  21  25
ENDBRANCH  16  19
BRANCH  17  27
ATOM     27  N           0      52.001   3.121 109.925  0.00  0.00    -0.231 N 
ATOM     28  H           0      51.680   3.933 110.433  0.00  0.00     0.174 HD
ATOM     29  H           0      52.858   2.650 110.181  0.00  0.00     0.174 HD
ENDBRANCH  17  27
BRANCH  13  30
ATOM     30  N           0      50.258   3.703 105.595  0.00  0.00    -0.381 N 
ATOM     31  H           0      50.571   4.665 105.644  0.00  0.00     0.157 HD
ATOM     32  H           0      49.511   3.471 104.952  0.00  0.00     0.157 HD
ENDBRANCH  13  30
ENDBRANCH   5   9
ENDBRANCH   1   3
TORSDOF 6
ENDMDL
