MODEL 1
REMARK VINA RESULT:      -7.9      0.000      0.000
REMARK  COPANLISIB
REMARK  9 active torsions:
REMARK  status: ('A' for Active; 'I' for Inactive)
REMARK    1  A    between atoms: O_2  and  C_22 
REMARK    2  A    between atoms: O_2  and  C_26 
REMARK    3  A    between atoms: O_3  and  C_27 
REMARK    4  A    between atoms: N_5  and  C_13 
REMARK    5  A    between atoms: N_9  and  C_25 
REMARK       I    between atoms: N_9  and  C_30 
REMARK    6  A    between atoms: N_12  and  C_35 
REMARK    7  A    between atoms: C_13  and  C_16 
REMARK    8  A    between atoms: C_16  and  C_22 
REMARK    9  A    between atoms: C_30  and  C_32 
ROOT
ATOM      1  O           0      50.545   1.619 110.923  0.00  0.00    -0.350 OA
ATOM      2  N           0      49.824   2.254 108.244  0.00  0.00     0.142 N 
ATOM      3  C           0      50.793   3.067 108.992  0.00  0.00     0.282 C 
ATOM      4  C           0      49.856   0.865 108.722  0.00  0.00     0.282 C 
ATOM      5  C           0      50.499   2.978 110.486  0.00  0.00     0.178 C 
ATOM      6  C           0      49.583   0.829 110.223  0.00  0.00     0.178 C 
ENDROOT
BRANCH   2   7
ATOM      7  C           0      50.094   2.315 106.809  0.00  0.00     0.253 C 
BRANCH   7   8
ATOM      8  C           0      49.738   0.988 106.147  0.00  0.00     0.068 C 
BRANCH   8   9
ATOM      9  C           0      49.607   1.135 104.637  0.00  0.00     0.151 C 
BRANCH   9  10
ATOM     10  O           0      50.769   1.793 104.135  0.00  0.00    -0.329 OA
BRANCH  10  11
ATOM     11  C           0      50.728   2.219 102.841  0.00  0.00     0.118 A 
ATOM     12  C           0      50.767   3.584 102.544  0.00  0.00     0.135 A 
ATOM     13  C           0      50.726   4.024 101.218  0.00  0.00     0.127 A 
ATOM     14  N           0      50.767   5.424 100.961  0.00  0.00    -0.060 NA
ATOM     15  C           0      50.645   3.049 100.196  0.00  0.00     0.055 A 
ATOM     16  C           0      50.728   5.808  99.712  0.00  0.00     0.713 A 
ATOM     17  N           0      50.649   4.911  98.662  0.00  0.00    -0.145 N 
ATOM     18  C           0      50.604   3.549  98.815  0.00  0.00     0.156 A 
ATOM     19  C           0      50.599   5.213  97.253  0.00  0.00     0.152 A 
ATOM     20  N           0      50.531   2.808  97.743  0.00  0.00    -0.252 NA
ATOM     21  C           0      50.520   3.807  96.632  0.00  0.00     0.152 A 
ATOM     22  C           0      50.607   1.686 100.484  0.00  0.00     0.007 A 
ATOM     23  C           0      50.648   1.275 101.815  0.00  0.00     0.026 A 
BRANCH  12  24
ATOM     24  O           0      50.846   4.490 103.563  0.00  0.00    -0.325 OA
ATOM     25  C           0      49.625   4.847 104.204  0.00  0.00     0.182 C 
ENDBRANCH  12  24
BRANCH  16  26
ATOM     26  N           0      50.767   7.159  99.459  0.00  0.00    -0.153 N 
ATOM     27  C           0      51.933   7.898  99.515  0.00  0.00     0.274 C 
ATOM     28  O           0      53.047   7.459  99.789  0.00  0.00    -0.267 OA
ATOM     29  H           0      49.894   7.602  99.191  0.00  0.00     0.187 HD
BRANCH  27  30
ATOM     30  C           0      51.785   9.337  99.178  0.00  0.00     0.096 A 
ATOM     31  C           0      52.532  10.317  99.798  0.00  0.00     0.124 A 
ATOM     32  N           0      52.424  11.633  99.518  0.00  0.00    -0.060 NA
ATOM     33  C           0      51.518  11.939  98.570  0.00  0.00     0.721 A 
ATOM     34  N           0      50.732  11.079  97.894  0.00  0.00    -0.060 NA
ATOM     35  C           0      50.892   9.782  98.225  0.00  0.00     0.124 A 
BRANCH  33  36
ATOM     36  N           0      51.377  13.307  98.249  0.00  0.00    -0.231 N 
ATOM     37  H           0      51.827  13.672  97.420  0.00  0.00     0.174 HD
ATOM     38  H           0      50.830  13.905  98.852  0.00  0.00     0.174 HD
ENDBRANCH  33  36
ENDBRANCH  27  30
ENDBRANCH  16  26
ENDBRANCH  10  11
ENDBRANCH   9  10
ENDBRANCH   8   9
ENDBRANCH   7   8
ENDBRANCH   2   7
TORSDOF 9
ENDMDL
