MODEL 1
REMARK VINA RESULT:      -9.1      0.000      0.000
REMARK  IDELALISIB
REMARK  5 active torsions:
REMARK  status: ('A' for Active; 'I' for Inactive)
REMARK    1  A    between atoms: N_3  and  C_17 
REMARK    2  A    between atoms: N_4  and  C_10 
REMARK    3  A    between atoms: N_4  and  C_18 
REMARK    4  A    between atoms: C_10  and  C_11 
REMARK    5  A    between atoms: C_10  and  C_12 
ROOT
ATOM      1  F           0      51.243   4.316 107.943  0.00  0.00    -0.204 F 
ATOM      2  O           0      50.622   3.109 105.827  0.00  0.00    -0.266 OA
ATOM      3  N           0      49.527   1.024 105.859  0.00  0.00    -0.261 N 
ATOM      4  N           0      49.086  -0.010 107.957  0.00  0.00    -0.230 NA
ATOM      5  C           0      49.009   0.004 106.661  0.00  0.00     0.147 A 
ATOM      6  C           0      50.121   2.167 106.436  0.00  0.00     0.269 A 
ATOM      7  C           0      50.187   2.172 107.912  0.00  0.00     0.102 A 
ATOM      8  C           0      49.688   1.071 108.608  0.00  0.00     0.089 A 
ATOM      9  C           0      50.761   3.250 108.597  0.00  0.00     0.146 A 
ATOM     10  C           0      49.770   1.059 110.005  0.00  0.00     0.019 A 
ATOM     11  C           0      50.835   3.226 109.989  0.00  0.00     0.030 A 
ATOM     12  C           0      50.342   2.131 110.693  0.00  0.00     0.004 A 
ENDROOT
BRANCH   3  13
ATOM     13  C           0      49.524   0.943 104.424  0.00  0.00     0.068 A 
ATOM     14  C           0      48.478   1.511 103.706  0.00  0.00     0.018 A 
ATOM     15  C           0      48.476   1.433 102.314  0.00  0.00     0.002 A 
ATOM     16  C           0      49.519   0.786 101.651  0.00  0.00     0.000 A 
ATOM     17  C           0      50.563   0.218 102.379  0.00  0.00     0.002 A 
ATOM     18  C           0      50.566   0.297 103.771  0.00  0.00     0.018 A 
ENDBRANCH   3  13
BRANCH   5  19
ATOM     19  C           0      48.252  -1.148 106.034  0.00  0.00     0.137 C 
BRANCH  19  20
ATOM     20  N           0      48.857  -2.359 106.525  0.00  0.00    -0.353 N 
ATOM     21  H           0      49.813  -2.322 106.863  0.00  0.00     0.162 HD
BRANCH  20  22
ATOM     22  C           0      48.185  -3.568 106.640  0.00  0.00     0.158 A 
ATOM     23  N           0      47.751  -4.027 107.845  0.00  0.00    -0.206 NA
ATOM     24  C           0      47.103  -5.216 107.877  0.00  0.00     0.202 A 
ATOM     25  N           0      46.812  -6.049 106.855  0.00  0.00    -0.203 NA
ATOM     26  C           0      47.252  -5.579 105.663  0.00  0.00     0.184 A 
ATOM     27  N           0      47.108  -6.194 104.447  0.00  0.00    -0.205 NA
ATOM     28  C           0      47.924  -4.370 105.536  0.00  0.00     0.128 A 
ATOM     29  C           0      47.682  -5.377 103.590  0.00  0.00     0.177 A 
ATOM     30  N           0      48.189  -4.261 104.201  0.00  0.00    -0.332 N 
ATOM     31  H           0      48.673  -3.499 103.744  0.00  0.00     0.168 HD
ENDBRANCH  20  22
ENDBRANCH  19  20
BRANCH  19  32
ATOM     32  C           0      46.783  -1.069 106.425  0.00  0.00     0.030 C 
ATOM     33  C           0      45.992  -0.162 105.492  0.00  0.00     0.003 C 
ENDBRANCH  19  32
ENDBRANCH   5  19
TORSDOF 5
ENDMDL
