MODEL 1
REMARK VINA RESULT:      -7.2      0.000      0.000
REMARK  14 active torsions:
REMARK  status: ('A' for Active; 'I' for Inactive)
REMARK    1  A    between atoms: C2_2  and  C12_13 
REMARK    2  A    between atoms: C3_3  and  C6_7 
REMARK    3  A    between atoms: C6_7  and  C7_8 
REMARK    4  A    between atoms: C7_8  and  C8_9 
REMARK    5  A    between atoms: C8_9  and  C9_10 
REMARK    6  A    between atoms: C9_10  and  C10_11 
REMARK    7  A    between atoms: C10_11  and  C11_12 
REMARK    8  A    between atoms: C11_12  and  C20_22 
REMARK    9  A    between atoms: C13_14  and  C14_15 
REMARK   10  A    between atoms: C14_15  and  C15_16 
REMARK   11  A    between atoms: C15_16  and  C16_17 
REMARK   12  A    between atoms: C16_17  and  C17_18 
REMARK   13  A    between atoms: C17_18  and  C18_19 
REMARK   14  A    between atoms: C20_22  and  O4_24 
ROOT
HETATM    1  C1  UNL     1      51.244   3.150 109.843  1.00  0.00    -0.014 A 
HETATM    2  C2  UNL     1      50.830   2.704 108.471  1.00  0.00     0.042 A 
HETATM    3  C3  UNL     1      49.625   1.761 108.711  1.00  0.00     0.071 A 
HETATM    4  C4  UNL     1      49.607   1.665 110.221  1.00  0.00     0.154 A 
HETATM    5  C5  UNL     1      50.578   2.573 110.844  1.00  0.00     0.047 A 
HETATM    6  O1  UNL     1      48.874   0.952 110.888  1.00  0.00    -0.293 OA
ENDROOT
BRANCH   3   7
HETATM    7  C6  UNL     1      49.815   0.403 108.024  1.00  0.00     0.013 C 
BRANCH   7   8
HETATM    8  C7  UNL     1      49.822   0.513 106.495  1.00  0.00     0.001 C 
BRANCH   8   9
HETATM    9  C8  UNL     1      49.062  -0.624 105.802  1.00  0.00     0.000 C 
BRANCH   9  10
HETATM   10  C9  UNL     1      47.591  -0.295 105.539  1.00  0.00     0.001 C 
BRANCH  10  11
HETATM   11  C10 UNL     1      46.616  -0.945 106.530  1.00  0.00     0.010 C 
BRANCH  11  12
HETATM   12  C11 UNL     1      46.895  -2.422 106.819  1.00  0.00     0.110 C 
BRANCH  12  13
HETATM   13  C20 UNL     1      47.047  -2.723 108.288  1.00  0.00     0.139 C 
HETATM   14  O3  UNL     1      47.498  -1.992 109.153  1.00  0.00    -0.650 OA
BRANCH  13  15
HETATM   15  O4  UNL     1      46.653  -3.975 108.588  1.00  0.00    -0.776 OA
HETATM   16  H30 UNL     1      46.581  -3.972 109.566  1.00  0.00     0.167 HD
ENDBRANCH  13  15
ENDBRANCH  12  13
ENDBRANCH  11  12
ENDBRANCH  10  11
ENDBRANCH   9  10
ENDBRANCH   8   9
ENDBRANCH   7   8
ENDBRANCH   3   7
BRANCH   2  17
HETATM   17  C12 UNL     1      50.471   3.814 107.513  1.00  0.00    -0.014 C 
HETATM   18  C13 UNL     1      50.883   3.968 106.244  1.00  0.00     0.046 C 
BRANCH  18  19
HETATM   19  C14 UNL     1      50.432   5.145 105.443  1.00  0.00     0.149 C 
HETATM   20  O2  UNL     1      50.402   6.275 105.924  1.00  0.00    -0.293 OA
BRANCH  19  21
HETATM   21  C15 UNL     1      50.043   4.887 104.001  1.00  0.00     0.083 C 
BRANCH  21  22
HETATM   22  C16 UNL     1      49.384   3.517 103.871  1.00  0.00     0.008 C 
BRANCH  22  23
HETATM   23  C17 UNL     1      50.067   2.611 102.845  1.00  0.00     0.000 C 
BRANCH  23  24
HETATM   24  C18 UNL     1      51.350   1.965 103.369  1.00  0.00    -0.005 C 
HETATM   25  C19 UNL     1      51.399   0.481 103.036  1.00  0.00     0.005 C 
ENDBRANCH  23  24
ENDBRANCH  22  23
ENDBRANCH  21  22
ENDBRANCH  19  21
ENDBRANCH  18  19
ENDBRANCH   2  17
TORSDOF 14
ENDMDL
