MODEL 1
REMARK VINA RESULT:      -7.4      0.000      0.000
REMARK  7 active torsions:
REMARK  status: ('A' for Active; 'I' for Inactive)
REMARK    1  A    between atoms: C1_1  and  O4_22 
REMARK    2  A    between atoms: C2_2  and  O2_9 
REMARK    3  A    between atoms: C3_3  and  O1_7 
REMARK    4  A    between atoms: C9_11  and  N1_12 
REMARK    5  A    between atoms: N1_12  and  C10_13 
REMARK    6  A    between atoms: C10_13  and  C11_14 
REMARK    7  A    between atoms: C12_15  and  O3_20 
ROOT
HETATM    1  C1  UNL     1      49.349   2.683 100.735  1.00  0.00     0.104 A 
HETATM    2  C2  UNL     1      50.154   3.585 100.029  1.00  0.00     0.135 A 
HETATM    3  C3  UNL     1      50.708   4.688 100.638  1.00  0.00     0.104 A 
HETATM    4  C4  UNL     1      50.456   4.893 101.977  1.00  0.00     0.047 A 
HETATM    5  C5  UNL     1      49.667   4.031 102.730  1.00  0.00    -0.051 A 
HETATM    6  C6  UNL     1      49.131   2.937 102.071  1.00  0.00     0.047 A 
HETATM    7  C8  UNL     1      49.412   4.269 104.156  1.00  0.00     0.068 A 
HETATM    8  C9  UNL     1      50.443   3.613 105.048  1.00  0.00     0.274 A 
HETATM    9 CL1  UNL     1      50.336   3.543 103.927  1.00  0.00    -0.145 Cl
HETATM   10  H26 UNL     1      50.564   3.611 105.283  1.00  0.00     0.145 HD
ENDROOT
BRANCH   3  11
HETATM   11  O1  UNL     1      51.508   5.596  99.958  1.00  0.00    -0.353 OA
HETATM   12  C7  UNL     1      51.011   6.867  99.598  1.00  0.00     0.210 C 
ENDBRANCH   3  11
BRANCH   1  13
HETATM   13  O4  UNL     1      48.798   1.578 100.107  1.00  0.00    -0.353 OA
HETATM   14  C18 UNL     1      47.953   0.744 100.874  1.00  0.00     0.210 C 
ENDBRANCH   1  13
BRANCH   8  15
HETATM   15  N1  UNL     1      50.148   3.875 106.428  1.00  0.00     0.087 N 
HETATM   16  H10 UNL     1      49.961   4.872 106.632  1.00  0.00     0.316 HD
BRANCH  15  17
HETATM   17  C10 UNL     1      51.194   3.303 107.232  1.00  0.00     0.310 C 
BRANCH  17  18
HETATM   18  C11 UNL     1      50.679   2.695 108.482  1.00  0.00     0.003 A 
HETATM   19  C12 UNL     1      50.058   1.464 108.403  1.00  0.00     0.076 A 
HETATM   20  C13 UNL     1      49.552   0.844 109.551  1.00  0.00     0.037 A 
HETATM   21  C14 UNL     1      49.669   1.460 110.779  1.00  0.00     0.003 A 
HETATM   22  C15 UNL     1      50.290   2.690 110.856  1.00  0.00     0.001 A 
HETATM   23  C16 UNL     1      50.788   3.298 109.718  1.00  0.00     0.012 A 
BRANCH  19  24
HETATM   24  O3  UNL     1      49.943   0.848 107.165  1.00  0.00    -0.355 OA
HETATM   25  C17 UNL     1      48.682   0.357 106.753  1.00  0.00     0.210 C 
ENDBRANCH  19  24
ENDBRANCH  17  18
ENDBRANCH  15  17
ENDBRANCH   8  15
BRANCH   2  26
HETATM   26  O2  UNL     1      50.403   3.373  98.678  1.00  0.00    -0.351 OA
HETATM   27  C19 UNL     1      51.548   2.692  98.215  1.00  0.00     0.210 C 
ENDBRANCH   2  26
TORSDOF 7
ENDMDL
