MODEL 1
REMARK VINA RESULT:      -7.7      0.000      0.000
REMARK  9 active torsions:
REMARK  status: ('A' for Active; 'I' for Inactive)
REMARK    1  A    between atoms: C1_1  and  C2_2 
REMARK       I    between atoms: C1_1  and  N1_4 
REMARK    2  A    between atoms: N1_4  and  C11_15 
REMARK    3  A    between atoms: N3_6  and  C9_13 
REMARK    4  A    between atoms: C9_13  and  C10_14 
REMARK    5  A    between atoms: C10_14  and  C14_20 
REMARK    6  A    between atoms: C11_15  and  C12_16 
REMARK    7  A    between atoms: C11_15  and  C13_17 
REMARK    8  A    between atoms: C12_16  and  C17_23 
REMARK       I    between atoms: C13_17  and  N4_18 
REMARK    9  A    between atoms: C14_20  and  C15_21 
ROOT
HETATM    1  C2  UNL     1      49.976   1.990 106.633  1.00  0.00     0.157 A 
HETATM    2  N2  UNL     1      49.350   0.814 106.461  1.00  0.00    -0.166 NA
HETATM    3  N3  UNL     1      49.199   0.323 107.702  1.00  0.00    -0.268 N 
HETATM    4  C3  UNL     1      49.672   1.149 108.691  1.00  0.00     0.065 A 
HETATM    5  C4  UNL     1      50.190   2.257 108.023  1.00  0.00     0.028 A 
HETATM    6  C5  UNL     1      49.700   1.027 110.087  1.00  0.00     0.032 A 
HETATM    7  C6  UNL     1      50.269   2.074 110.819  1.00  0.00     0.002 A 
HETATM    8  C7  UNL     1      50.783   3.200 110.179  1.00  0.00     0.001 A 
HETATM    9  C8  UNL     1      50.745   3.308 108.785  1.00  0.00     0.016 A 
ENDROOT
BRANCH   1  10
HETATM   10  C1  UNL     1      50.368   2.810 105.474  1.00  0.00     0.273 C 
HETATM   11  O1  UNL     1      50.173   4.024 105.399  1.00  0.00    -0.266 OA
HETATM   12  N1  UNL     1      50.901   2.098 104.412  1.00  0.00    -0.342 N 
HETATM   13  H1  UNL     1      50.685   1.108 104.390  1.00  0.00     0.163 HD
BRANCH  12  14
HETATM   14  C11 UNL     1      51.111   2.749 103.117  1.00  0.00     0.180 C 
BRANCH  14  15
HETATM   15  C12 UNL     1      52.097   1.939 102.243  1.00  0.00     0.013 C 
HETATM   16  C19 UNL     1      52.144   0.468 102.683  1.00  0.00     0.012 C 
BRANCH  15  17
HETATM   17  C17 UNL     1      51.795   2.040 100.729  1.00  0.00     0.002 C 
HETATM   18  C18 UNL     1      52.736   2.935  99.936  1.00  0.00     0.005 C 
ENDBRANCH  15  17
ENDBRANCH  14  15
BRANCH  14  19
HETATM   19  C13 UNL     1      49.709   2.836 102.476  1.00  0.00     0.238 C 
HETATM   20  N4  UNL     1      49.285   4.108 102.193  1.00  0.00    -0.368 N 
HETATM   21  H12 UNL     1      49.692   4.876 102.726  1.00  0.00     0.159 HD
HETATM   22  H13 UNL     1      48.306   4.203 101.951  1.00  0.00     0.159 HD
HETATM   23  O2  UNL     1      48.962   1.874 102.319  1.00  0.00    -0.271 OA
ENDBRANCH  14  19
ENDBRANCH  12  14
ENDBRANCH   1  10
BRANCH   3  24
HETATM   24  C9  UNL     1      48.569  -0.973 107.877  1.00  0.00     0.151 C 
BRANCH  24  25
HETATM   25  C10 UNL     1      48.638  -1.861 106.632  1.00  0.00     0.022 C 
BRANCH  25  26
HETATM   26  C14 UNL     1      47.270  -2.081 105.980  1.00  0.00     0.001 C 
BRANCH  26  27
HETATM   27  C15 UNL     1      46.289  -0.932 106.224  1.00  0.00    -0.004 C 
HETATM   28  C16 UNL     1      46.062  -0.051 105.005  1.00  0.00     0.005 C 
ENDBRANCH  26  27
ENDBRANCH  25  26
ENDBRANCH  24  25
ENDBRANCH   3  24
TORSDOF 9
ENDMDL
