MODEL 1
REMARK VINA RESULT:      -8.1      0.000      0.000
REMARK  10 active torsions:
REMARK  status: ('A' for Active; 'I' for Inactive)
REMARK    1  A    between atoms: C1_1  and  O2_28 
REMARK    2  A    between atoms: C7_8  and  C10_11 
REMARK    3  A    between atoms: C10_11  and  C11_12 
REMARK    4  A    between atoms: C11_12  and  C12_13 
REMARK    5  A    between atoms: C14_15  and  C15_16 
REMARK    6  A    between atoms: C15_16  and  C17_18 
REMARK    7  A    between atoms: C17_18  and  C18_19 
REMARK    8  A    between atoms: C19_20  and  C20_21 
REMARK    9  A    between atoms: C20_21  and  C22_23 
REMARK   10  A    between atoms: C22_23  and  C23_24 
ROOT
HETATM    1  C10 UNL     1      49.833  -0.250 101.629  1.00  0.00     0.042 C 
ENDROOT
BRANCH   1   2
HETATM    2  C7  UNL     1      50.451   0.629 102.749  1.00  0.00     0.065 C 
HETATM    3  O1  UNL     1      50.257   1.981 102.285  1.00  0.00    -0.339 OA
HETATM    4  C4  UNL     1      50.292   2.997 103.202  1.00  0.00     0.082 A 
HETATM    5  C3  UNL     1      50.338   4.295 102.667  1.00  0.00    -0.025 A 
HETATM    6  C5  UNL     1      50.266   2.791 104.593  1.00  0.00    -0.015 A 
HETATM    7  C2  UNL     1      50.378   5.390 103.534  1.00  0.00     0.046 A 
HETATM    8  C27 UNL     1      50.342   4.511 101.180  1.00  0.00     0.051 C 
HETATM    9  C1  UNL     1      50.382   5.191 104.914  1.00  0.00     0.072 A 
HETATM   10  C6  UNL     1      50.346   3.902 105.464  1.00  0.00    -0.020 A 
HETATM   11  C28 UNL     1      50.339   3.718 106.960  1.00  0.00     0.052 C 
HETATM   12  C9  UNL     1      50.184   1.389 105.137  1.00  0.00     0.045 C 
HETATM   13  C8  UNL     1      49.715   0.405 104.075  1.00  0.00     0.043 C 
HETATM   14  C13 UNL     1      51.962   0.367 102.854  1.00  0.00     0.046 C 
BRANCH   9  15
HETATM   15  O2  UNL     1      50.416   6.272 105.751  1.00  0.00    -0.360 OA
HETATM   16  H36 UNL     1      50.063   6.008 106.616  1.00  0.00     0.217 HD
ENDBRANCH   9  15
ENDBRANCH   1   2
BRANCH   1  17
HETATM   17  C11 UNL     1      48.304  -0.376 101.639  1.00  0.00     0.030 C 
BRANCH  17  18
HETATM   18  C12 UNL     1      47.887  -1.667 102.294  1.00  0.00    -0.024 C 
HETATM   19  C14 UNL     1      46.668  -2.029 102.742  1.00  0.00    -0.087 C 
HETATM   20  C16 UNL     1      45.440  -1.160 102.709  1.00  0.00     0.043 C 
BRANCH  19  21
HETATM   21  C15 UNL     1      46.471  -3.401 103.363  1.00  0.00     0.037 C 
BRANCH  21  22
HETATM   22  C17 UNL     1      46.185  -3.334 104.868  1.00  0.00     0.031 C 
BRANCH  22  23
HETATM   23  C18 UNL     1      47.396  -2.877 105.638  1.00  0.00    -0.024 C 
HETATM   24  C19 UNL     1      47.592  -1.690 106.243  1.00  0.00    -0.087 C 
HETATM   25  C21 UNL     1      46.624  -0.539 106.201  1.00  0.00     0.043 C 
BRANCH  24  26
HETATM   26  C20 UNL     1      48.881  -1.432 107.009  1.00  0.00     0.037 C 
BRANCH  26  27
HETATM   27  C22 UNL     1      48.761  -0.393 108.134  1.00  0.00     0.031 C 
BRANCH  27  28
HETATM   28  C23 UNL     1      50.049   0.333 108.414  1.00  0.00    -0.024 C 
HETATM   29  C24 UNL     1      50.348   1.091 109.488  1.00  0.00    -0.091 C 
HETATM   30  C25 UNL     1      51.704   1.732 109.620  1.00  0.00     0.042 C 
HETATM   31  C26 UNL     1      49.404   1.390 110.622  1.00  0.00     0.042 C 
ENDBRANCH  27  28
ENDBRANCH  26  27
ENDBRANCH  24  26
ENDBRANCH  22  23
ENDBRANCH  21  22
ENDBRANCH  19  21
ENDBRANCH  17  18
ENDBRANCH   1  17
TORSDOF 10
ENDMDL
