MODEL 1
REMARK VINA RESULT:      -7.4      0.000      0.000
REMARK  4 active torsions:
REMARK  status: ('A' for Active; 'I' for Inactive)
REMARK    1  A    between atoms: C2_3  and  N2_13 
REMARK    2  A    between atoms: C4_5  and  C6_8 
REMARK    3  A    between atoms: C6_8  and  O2_10 
REMARK    4  A    between atoms: C9_14  and  N3_15 
ROOT
HETATM    1  N1  UNL     1      46.360  -0.620 104.958  1.00  0.00    -0.219 NA
HETATM    2  C1  UNL     1      47.517   0.221 104.607  1.00  0.00     0.163 C 
HETATM    3  C2  UNL     1      47.981   0.127 106.090  1.00  0.00     0.223 C 
HETATM    4  C3  UNL     1      46.835  -0.934 106.202  1.00  0.00     0.229 C 
HETATM    5  C4  UNL     1      45.993  -1.671 104.016  1.00  0.00     0.182 C 
HETATM    6  C5  UNL     1      47.282  -2.151 103.316  1.00  0.00     0.029 C 
HETATM    7  S1  UNL     1      48.441  -0.712 103.320  1.00  0.00    -0.134 SA
HETATM    8  C7  UNL     1      47.088  -2.608 101.864  1.00  0.00     0.029 C 
HETATM    9  C8  UNL     1      47.949  -3.295 104.098  1.00  0.00     0.029 C 
HETATM   10  O3  UNL     1      46.455  -1.792 106.967  1.00  0.00    -0.277 OA
ENDROOT
BRANCH   3  11
HETATM   11  N2  UNL     1      49.353  -0.369 106.251  1.00  0.00    -0.268 NA
HETATM   12  C9  UNL     1      50.010   0.052 107.276  1.00  0.00     0.199 C 
BRANCH  12  13
HETATM   13  N3  UNL     1      49.710   1.001 108.226  1.00  0.00    -0.376 N 
HETATM   14  C10 UNL     1      49.737   2.419 107.875  1.00  0.00     0.123 C 
HETATM   15  C11 UNL     1      51.078   3.083 108.175  1.00  0.00     0.020 C 
HETATM   16  C12 UNL     1      51.632   2.889 109.587  1.00  0.00     0.002 C 
HETATM   17  C13 UNL     1      50.585   2.865 110.698  1.00  0.00     0.002 C 
HETATM   18  C14 UNL     1      49.548   1.735 110.632  1.00  0.00     0.020 C 
HETATM   19  C15 UNL     1      49.854   0.616 109.638  1.00  0.00     0.123 C 
ENDBRANCH  12  13
ENDBRANCH   3  11
BRANCH   5  20
HETATM   20  C6  UNL     1      44.949  -1.085 103.069  1.00  0.00     0.160 C 
HETATM   21  O1  UNL     1      44.981  -0.007 102.495  1.00  0.00    -0.649 OA
BRANCH  20  22
HETATM   22  O2  UNL     1      43.902  -1.916 102.872  1.00  0.00    -0.775 OA
HETATM   23  H4  UNL     1      43.579  -2.107 103.778  1.00  0.00     0.167 HD
ENDBRANCH  20  22
ENDBRANCH   5  20
TORSDOF 4
ENDMDL
