MODEL 1
REMARK VINA RESULT:      -8.0      0.000      0.000
REMARK  5 active torsions:
REMARK  status: ('A' for Active; 'I' for Inactive)
REMARK    1  A    between atoms: C2_2  and  C7_8 
REMARK    2  A    between atoms: C6_6  and  O1_7 
REMARK    3  A    between atoms: C7_8  and  C8_9 
REMARK    4  A    between atoms: C8_9  and  C9_10 
REMARK    5  A    between atoms: C9_10  and  C10_11 
ROOT
HETATM    1  C1  UNL     1      48.359  -0.780 108.514  1.00  0.00     0.044 A 
HETATM    2  C2  UNL     1      49.490   0.040 108.525  1.00  0.00    -0.053 A 
HETATM    3  C3  UNL     1      50.107   0.337 107.308  1.00  0.00     0.044 A 
HETATM    4  C4  UNL     1      49.585  -0.156 106.106  1.00  0.00     0.079 A 
HETATM    5  C5  UNL     1      48.447  -0.983 106.066  1.00  0.00     0.014 A 
HETATM    6  C6  UNL     1      47.865  -1.286 107.311  1.00  0.00     0.075 A 
HETATM    7  C12 UNL     1      47.950  -1.552 104.686  1.00  0.00     0.040 A 
HETATM    8  C13 UNL     1      48.721  -1.002 103.468  1.00  0.00     0.034 A 
HETATM    9  C14 UNL     1      49.589   0.233 103.730  1.00  0.00     0.069 C 
HETATM   10  O2  UNL     1      50.292   0.193 104.981  1.00  0.00    -0.340 OA
HETATM   11  C15 UNL     1      47.408  -0.494 102.835  1.00  0.00     0.002 A 
HETATM   12  C16 UNL     1      47.584   1.013 102.636  1.00  0.00     0.009 C 
HETATM   13  C17 UNL     1      48.634   1.432 103.652  1.00  0.00     0.039 C 
HETATM   14  C18 UNL     1      46.600  -1.094 104.033  1.00  0.00    -0.035 A 
HETATM   15  C19 UNL     1      45.757  -2.298 103.579  1.00  0.00     0.016 C 
HETATM   16  C20 UNL     1      45.716  -0.120 104.811  1.00  0.00     0.016 C 
HETATM   17  C21 UNL     1      50.665   0.328 102.640  1.00  0.00     0.047 C 
ENDROOT
BRANCH   2  18
HETATM   18  C7  UNL     1      50.029   0.591 109.820  1.00  0.00     0.039 C 
BRANCH  18  19
HETATM   19  C8  UNL     1      49.490   1.984 110.169  1.00  0.00     0.005 C 
BRANCH  19  20
HETATM   20  C9  UNL     1      50.604   3.006 110.429  1.00  0.00    -0.000 C 
BRANCH  20  21
HETATM   21  C10 UNL     1      51.616   3.099 109.285  1.00  0.00    -0.005 C 
HETATM   22  C11 UNL     1      51.060   3.766 108.037  1.00  0.00     0.005 C 
ENDBRANCH  20  21
ENDBRANCH  19  20
ENDBRANCH  18  19
ENDBRANCH   2  18
BRANCH   6  23
HETATM   23  O1  UNL     1      46.780  -2.114 107.415  1.00  0.00    -0.360 OA
HETATM   24  H3  UNL     1      46.297  -1.898 108.227  1.00  0.00     0.217 HD
ENDBRANCH   6  23
TORSDOF 5
ENDMDL
