MODEL 1
REMARK VINA RESULT:      -6.0      0.000      0.000
REMARK  12 active torsions:
REMARK  status: ('A' for Active; 'I' for Inactive)
REMARK    1  A    between atoms: C3_3  and  N4_22 
REMARK    2  A    between atoms: C6_6  and  N3_10 
REMARK    3  A    between atoms: N3_10  and  C7_11 
REMARK    4  A    between atoms: C7_11  and  C8_12 
REMARK    5  A    between atoms: C8_12  and  C9_14 
REMARK    6  A    between atoms: C9_14  and  C10_15 
REMARK    7  A    between atoms: C9_14  and  O5_20 
REMARK    8  A    between atoms: C10_15  and  C11_16 
REMARK    9  A    between atoms: C10_15  and  O6_21 
REMARK   10  A    between atoms: C11_16  and  C12_17 
REMARK   11  A    between atoms: C11_16  and  O4_19 
REMARK   12  A    between atoms: C12_17  and  O3_18 
ROOT
HETATM    1  C7  UNL     1      49.921   4.029 100.838  1.00  0.00     0.173 C 
ENDROOT
BRANCH   1   2
HETATM    2  N3  UNL     1      50.671   4.779 101.862  1.00  0.00    -0.284 NA
HETATM    3  H3  UNL     1      51.662   4.846 101.587  1.00  0.00     0.128 HD
BRANCH   2   4
HETATM    4  C6  UNL     1      50.603   4.313 103.181  1.00  0.00     0.042 A 
HETATM    5  C1  UNL     1      50.438   2.942 103.506  1.00  0.00     0.028 A 
HETATM    6  C2  UNL     1      50.333   2.444 104.830  1.00  0.00     0.040 A 
HETATM    7  C3  UNL     1      50.360   3.309 105.937  1.00  0.00     0.136 A 
HETATM    8  C4  UNL     1      50.507   4.682 105.690  1.00  0.00     0.152 A 
HETATM    9  C5  UNL     1      50.619   5.173 104.320  1.00  0.00     0.141 A 
HETATM   10  N1  UNL     1      50.595   5.736 106.513  1.00  0.00    -0.100 NA
HETATM   11  N2  UNL     1      50.741   6.507 104.362  1.00  0.00    -0.101 NA
HETATM   12  O1  UNL     1      50.720   6.848 105.701  1.00  0.00    -0.106 OA
BRANCH   7  13
HETATM   13  N4  UNL     1      50.260   2.822 107.283  1.00  0.00    -0.113 N 
HETATM   14  O7  UNL     1      51.257   2.978 108.001  1.00  0.00    -0.532 OA
HETATM   15  O8  UNL     1      49.220   2.244 107.615  1.00  0.00    -0.532 OA
ENDBRANCH   7  13
ENDBRANCH   2   4
ENDBRANCH   1   2
BRANCH   1  16
HETATM   16  C8  UNL     1      50.638   4.074  99.487  1.00  0.00     0.171 C 
HETATM   17  O2  UNL     1      51.263   3.105  99.043  1.00  0.00    -0.294 OA
BRANCH  16  18
HETATM   18  C9  UNL     1      50.565   5.375  98.687  1.00  0.00     0.220 C 
BRANCH  18  19
HETATM   19  C10 UNL     1      51.924   6.089  98.678  1.00  0.00     0.185 C 
BRANCH  19  20
HETATM   20  C11 UNL     1      51.832   7.607  98.911  1.00  0.00     0.173 C 
BRANCH  20  21
HETATM   21  C12 UNL     1      52.147   8.074 100.336  1.00  0.00     0.198 C 
BRANCH  21  22
HETATM   22  O3  UNL     1      51.196   7.503 101.234  1.00  0.00    -0.398 OA
HETATM   23  H11 UNL     1      51.707   6.900 101.810  1.00  0.00     0.209 HD
ENDBRANCH  21  22
ENDBRANCH  20  21
BRANCH  20  24
HETATM   24  O4  UNL     1      52.771   8.262  98.033  1.00  0.00    -0.391 OA
HETATM   25  H12 UNL     1      52.236   8.820  97.433  1.00  0.00     0.210 HD
ENDBRANCH  20  24
ENDBRANCH  19  20
BRANCH  19  26
HETATM   26  O6  UNL     1      52.778   5.520  99.692  1.00  0.00    -0.390 OA
HETATM   27  H14 UNL     1      53.339   6.257 100.018  1.00  0.00     0.210 HD
ENDBRANCH  19  26
ENDBRANCH  18  19
BRANCH  18  28
HETATM   28  O5  UNL     1      49.574   6.249  99.226  1.00  0.00    -0.385 OA
HETATM   29  H13 UNL     1      49.036   5.718  99.847  1.00  0.00     0.210 HD
ENDBRANCH  18  28
ENDBRANCH  16  18
ENDBRANCH   1  16
TORSDOF 12
ENDMDL
