MODEL 1
REMARK VINA RESULT:      -6.5      0.000      0.000
REMARK  16 active torsions:
REMARK  status: ('A' for Active; 'I' for Inactive)
REMARK    1  A    between atoms: C1_1  and  C2_2 
REMARK    2  A    between atoms: C1_1  and  C5_5 
REMARK    3  A    between atoms: C3_3  and  C12_13 
REMARK    4  A    between atoms: C4_4  and  C5_5 
REMARK    5  A    between atoms: C5_5  and  O1_6 
REMARK    6  A    between atoms: C6_7  and  C7_8 
REMARK    7  A    between atoms: C8_9  and  C9_10 
REMARK    8  A    between atoms: C9_10  and  C10_11 
REMARK    9  A    between atoms: C10_11  and  C11_12 
REMARK   10  A    between atoms: C11_12  and  C20_21 
REMARK   11  A    between atoms: C12_13  and  C13_14 
REMARK   12  A    between atoms: C14_15  and  C15_16 
REMARK   13  A    between atoms: C15_16  and  C16_17 
REMARK   14  A    between atoms: C16_17  and  C17_18 
REMARK   15  A    between atoms: C17_18  and  C18_19 
REMARK   16  A    between atoms: C20_21  and  O3_23 
ROOT
HETATM    1  C5  UNL     1      50.576   4.143 105.671  1.00  0.00     0.144 C 
ENDROOT
BRANCH   1   2
HETATM    2  C1  UNL     1      50.504   4.205 107.211  1.00  0.00     0.062 C 
BRANCH   2   3
HETATM    3  C2  UNL     1      51.707   3.635 107.927  1.00  0.00    -0.027 C 
HETATM    4  C3  UNL     1      51.755   3.149 109.179  1.00  0.00    -0.027 C 
BRANCH   4   5
HETATM    5  C12 UNL     1      50.622   3.006 110.156  1.00  0.00     0.053 C 
BRANCH   5   6
HETATM    6  C13 UNL     1      50.320   1.559 110.416  1.00  0.00    -0.027 C 
HETATM    7  C14 UNL     1      49.753   0.667 109.585  1.00  0.00    -0.030 C 
BRANCH   7   8
HETATM    8  C15 UNL     1      49.277   0.895 108.180  1.00  0.00     0.027 C 
BRANCH   8   9
HETATM    9  C16 UNL     1      49.686  -0.263 107.266  1.00  0.00     0.004 C 
BRANCH   9  10
HETATM   10  C17 UNL     1      48.556  -1.288 107.132  1.00  0.00    -0.000 C 
BRANCH  10  11
HETATM   11  C18 UNL     1      47.786  -1.173 105.815  1.00  0.00    -0.005 C 
HETATM   12  C19 UNL     1      46.535  -0.315 105.916  1.00  0.00     0.005 C 
ENDBRANCH  10  11
ENDBRANCH   9  10
ENDBRANCH   8   9
ENDBRANCH   7   8
ENDBRANCH   5   6
ENDBRANCH   4   5
ENDBRANCH   2   3
ENDBRANCH   1   2
BRANCH   1  13
HETATM   13  C4  UNL     1      50.016   2.880 105.078  1.00  0.00     0.005 C 
HETATM   14  C6  UNL     1      50.759   1.960 104.443  1.00  0.00    -0.002 C 
BRANCH  14  15
HETATM   15  C7  UNL     1      50.195   0.758 103.872  1.00  0.00    -0.004 C 
HETATM   16  C8  UNL     1      50.500   0.235 102.674  1.00  0.00    -0.027 C 
BRANCH  16  17
HETATM   17  C9  UNL     1      51.514   0.734 101.683  1.00  0.00     0.027 C 
BRANCH  17  18
HETATM   18  C10 UNL     1      50.967   1.764 100.688  1.00  0.00     0.014 C 
BRANCH  18  19
HETATM   19  C11 UNL     1      51.484   3.184 100.912  1.00  0.00     0.110 C 
BRANCH  19  20
HETATM   20  C20 UNL     1      50.423   4.101 101.454  1.00  0.00     0.139 C 
HETATM   21  O2  UNL     1      50.589   5.021 102.235  1.00  0.00    -0.650 OA
BRANCH  20  22
HETATM   22  O3  UNL     1      49.197   3.826 100.968  1.00  0.00    -0.776 OA
HETATM   23  H32 UNL     1      48.595   4.140 101.676  1.00  0.00     0.167 HD
ENDBRANCH  20  22
ENDBRANCH  19  20
ENDBRANCH  18  19
ENDBRANCH  17  18
ENDBRANCH  16  17
ENDBRANCH  14  15
ENDBRANCH   1  13
BRANCH   1  24
HETATM   24  O1  UNL     1      49.879   5.248 105.098  1.00  0.00    -0.391 OA
HETATM   25  H11 UNL     1      49.586   5.812 105.833  1.00  0.00     0.210 HD
ENDBRANCH   1  24
TORSDOF 16
ENDMDL
