MODEL 1
REMARK VINA RESULT:      -5.8      0.000      0.000
REMARK  23 active torsions:
REMARK  status: ('A' for Active; 'I' for Inactive)
REMARK    1  A    between atoms: C1_1  and  C2_2 
REMARK    2  A    between atoms: C1_1  and  C18_18 
REMARK    3  A    between atoms: C2_2  and  C3_3 
REMARK    4  A    between atoms: C3_3  and  C4_4 
REMARK    5  A    between atoms: C4_4  and  C5_5 
REMARK    6  A    between atoms: C5_5  and  C6_6 
REMARK    7  A    between atoms: C6_6  and  C7_7 
REMARK    8  A    between atoms: C7_7  and  C8_8 
REMARK    9  A    between atoms: C8_8  and  C9_9 
REMARK   10  A    between atoms: C9_9  and  C10_10 
REMARK   11  A    between atoms: C10_10  and  C11_11 
REMARK   12  A    between atoms: C11_11  and  C12_12 
REMARK   13  A    between atoms: C12_12  and  C13_13 
REMARK   14  A    between atoms: C13_13  and  C14_14 
REMARK   15  A    between atoms: C14_14  and  C15_15 
REMARK   16  A    between atoms: C15_15  and  C16_16 
REMARK   17  A    between atoms: C16_16  and  C17_17 
REMARK   18  A    between atoms: C17_17  and  C20_20 
REMARK   19  A    between atoms: C20_20  and  C21_21 
REMARK   20  A    between atoms: C21_21  and  C22_22 
REMARK   21  A    between atoms: C22_22  and  C23_23 
REMARK   22  A    between atoms: C23_23  and  C24_24 
REMARK   23  A    between atoms: C24_24  and  O2_26 
ROOT
HETATM    1  C12 UNL     1      50.212   3.478 107.287  1.00  0.00     0.000 C 
ENDROOT
BRANCH   1   2
HETATM    2  C11 UNL     1      50.462   3.211 105.797  1.00  0.00     0.000 C 
BRANCH   2   3
HETATM    3  C10 UNL     1      50.007   4.342 104.871  1.00  0.00     0.000 C 
BRANCH   3   4
HETATM    4  C9  UNL     1      49.499   3.896 103.492  1.00  0.00     0.000 C 
BRANCH   4   5
HETATM    5  C8  UNL     1      50.451   4.166 102.322  1.00  0.00     0.000 C 
BRANCH   5   6
HETATM    6  C7  UNL     1      51.088   2.928 101.680  1.00  0.00     0.000 C 
BRANCH   6   7
HETATM    7  C6  UNL     1      52.037   2.119 102.572  1.00  0.00     0.000 C 
BRANCH   7   8
HETATM    8  C5  UNL     1      51.689   0.627 102.639  1.00  0.00     0.000 C 
BRANCH   8   9
HETATM    9  C4  UNL     1      50.651   0.309 103.722  1.00  0.00     0.000 C 
BRANCH   9  10
HETATM   10  C3  UNL     1      49.377  -0.370 103.201  1.00  0.00     0.000 C 
BRANCH  10  11
HETATM   11  C2  UNL     1      48.547   0.503 102.258  1.00  0.00     0.000 C 
BRANCH  11  12
HETATM   12  C1  UNL     1      47.272   1.059 102.904  1.00  0.00    -0.000 C 
BRANCH  12  13
HETATM   13  C18 UNL     1      46.985   0.477 104.290  1.00  0.00    -0.005 C 
HETATM   14  C19 UNL     1      45.710  -0.354 104.286  1.00  0.00     0.005 C 
ENDBRANCH  12  13
ENDBRANCH  11  12
ENDBRANCH  10  11
ENDBRANCH   9  10
ENDBRANCH   8   9
ENDBRANCH   7   8
ENDBRANCH   6   7
ENDBRANCH   5   6
ENDBRANCH   4   5
ENDBRANCH   3   4
ENDBRANCH   2   3
ENDBRANCH   1   2
BRANCH   1  15
HETATM   15  C13 UNL     1      51.477   3.763 108.109  1.00  0.00     0.000 C 
BRANCH  15  16
HETATM   16  C14 UNL     1      51.684   2.807 109.284  1.00  0.00     0.000 C 
BRANCH  16  17
HETATM   17  C15 UNL     1      50.643   2.969 110.398  1.00  0.00     0.000 C 
BRANCH  17  18
HETATM   18  C16 UNL     1      49.688   1.789 110.606  1.00  0.00     0.000 C 
BRANCH  18  19
HETATM   19  C17 UNL     1      50.007   0.580 109.725  1.00  0.00     0.000 C 
BRANCH  19  20
HETATM   20  C20 UNL     1      48.976   0.319 108.619  1.00  0.00     0.000 C 
BRANCH  20  21
HETATM   21  C21 UNL     1      49.575  -0.159 107.293  1.00  0.00     0.001 C 
BRANCH  21  22
HETATM   22  C22 UNL     1      48.948  -1.468 106.799  1.00  0.00     0.010 C 
BRANCH  22  23
HETATM   23  C23 UNL     1      47.569  -1.718 107.400  1.00  0.00     0.110 C 
BRANCH  23  24
HETATM   24  C24 UNL     1      47.507  -2.994 108.190  1.00  0.00     0.139 C 
HETATM   25  O1  UNL     1      47.500  -4.125 107.733  1.00  0.00    -0.650 OA
BRANCH  24  26
HETATM   26  O2  UNL     1      47.470  -2.785 109.519  1.00  0.00    -0.776 OA
HETATM   27  H48 UNL     1      48.108  -2.056 109.661  1.00  0.00     0.167 HD
ENDBRANCH  24  26
ENDBRANCH  23  24
ENDBRANCH  22  23
ENDBRANCH  21  22
ENDBRANCH  20  21
ENDBRANCH  19  20
ENDBRANCH  18  19
ENDBRANCH  17  18
ENDBRANCH  16  17
ENDBRANCH  15  16
ENDBRANCH   1  15
TORSDOF 23
ENDMDL
