MODEL 1
REMARK VINA RESULT:      -6.6      0.000      0.000
REMARK  17 active torsions:
REMARK  status: ('A' for Active; 'I' for Inactive)
REMARK    1  A    between atoms: C1_1  and  C8_8 
REMARK    2  A    between atoms: C2_2  and  C5_5 
REMARK    3  A    between atoms: C3_3  and  C4_4 
REMARK    4  A    between atoms: C4_4  and  C22_25 
REMARK    5  A    between atoms: C5_5  and  C6_6 
REMARK    6  A    between atoms: C7_7  and  C11_11 
REMARK    7  A    between atoms: C8_8  and  C9_9 
REMARK    8  A    between atoms: C10_10  and  C15_15 
REMARK    9  A    between atoms: C11_11  and  C12_12 
REMARK   10  A    between atoms: C12_12  and  C13_13 
REMARK   11  A    between atoms: C13_13  and  C14_14 
REMARK       I    between atoms: C14_14  and  N1_20 
REMARK   12  A    between atoms: C15_15  and  C16_16 
REMARK   13  A    between atoms: C16_16  and  C17_17 
REMARK   14  A    between atoms: C17_17  and  C18_18 
REMARK   15  A    between atoms: N1_20  and  C20_21 
REMARK   16  A    between atoms: C20_21  and  C21_22 
REMARK   17  A    between atoms: C21_22  and  O1_23 
ROOT
HETATM    1  C5  UNL     1      49.054   0.447 108.372  1.00  0.00     0.053 C 
ENDROOT
BRANCH   1   2
HETATM    2  C2  UNL     1      49.765   0.417 109.694  1.00  0.00    -0.027 C 
HETATM    3  C3  UNL     1      50.270   1.454 110.384  1.00  0.00    -0.027 C 
BRANCH   3   4
HETATM    4  C4  UNL     1      50.240   2.908 110.010  1.00  0.00     0.053 C 
BRANCH   4   5
HETATM    5  C22 UNL     1      51.413   3.267 109.141  1.00  0.00    -0.027 C 
HETATM    6  C1  UNL     1      51.404   3.572 107.831  1.00  0.00    -0.027 C 
BRANCH   6   7
HETATM    7  C8  UNL     1      50.224   3.603 106.900  1.00  0.00     0.053 C 
BRANCH   7   8
HETATM    8  C9  UNL     1      50.423   4.630 105.823  1.00  0.00    -0.027 C 
HETATM    9  C10 UNL     1      50.291   4.464 104.496  1.00  0.00    -0.030 C 
BRANCH   9  10
HETATM   10  C15 UNL     1      49.876   3.214 103.771  1.00  0.00     0.027 C 
BRANCH  10  11
HETATM   11  C16 UNL     1      50.864   2.791 102.682  1.00  0.00     0.004 C 
BRANCH  11  12
HETATM   12  C17 UNL     1      52.053   1.987 103.219  1.00  0.00    -0.000 C 
BRANCH  12  13
HETATM   13  C18 UNL     1      51.858   0.488 102.981  1.00  0.00    -0.005 C 
HETATM   14  C19 UNL     1      51.233   0.217 101.622  1.00  0.00     0.005 C 
ENDBRANCH  12  13
ENDBRANCH  11  12
ENDBRANCH  10  11
ENDBRANCH   9  10
ENDBRANCH   7   8
ENDBRANCH   6   7
ENDBRANCH   4   5
ENDBRANCH   3   4
ENDBRANCH   1   2
BRANCH   1  15
HETATM   15  C6  UNL     1      49.980   0.039 107.260  1.00  0.00    -0.027 C 
HETATM   16  C7  UNL     1      49.716   0.010 105.944  1.00  0.00    -0.030 C 
BRANCH  16  17
HETATM   17  C11 UNL     1      48.408   0.334 105.279  1.00  0.00     0.027 C 
BRANCH  17  18
HETATM   18  C12 UNL     1      48.259  -0.301 103.894  1.00  0.00     0.013 C 
BRANCH  18  19
HETATM   19  C13 UNL     1      48.308  -1.829 103.921  1.00  0.00     0.103 C 
BRANCH  19  20
HETATM   20  C14 UNL     1      47.216  -2.419 104.794  1.00  0.00     0.217 C 
HETATM   21  N1  UNL     1      47.695  -2.888 106.001  1.00  0.00    -0.355 N 
HETATM   22  H31 UNL     1      48.571  -2.498 106.327  1.00  0.00     0.162 HD
HETATM   23  O2  UNL     1      46.035  -2.481 104.468  1.00  0.00    -0.274 OA
BRANCH  21  24
HETATM   24  C20 UNL     1      46.777  -3.336 107.047  1.00  0.00     0.104 C 
HETATM   25  C23 UNL     1      47.251  -4.678 107.599  1.00  0.00     0.034 C 
BRANCH  24  26
HETATM   26  C21 UNL     1      46.663  -2.276 108.156  1.00  0.00     0.189 C 
BRANCH  26  27
HETATM   27  O1  UNL     1      47.281  -2.742 109.357  1.00  0.00    -0.399 OA
HETATM   28  H35 UNL     1      46.660  -2.545 110.082  1.00  0.00     0.209 HD
ENDBRANCH  26  27
ENDBRANCH  24  26
ENDBRANCH  21  24
ENDBRANCH  19  20
ENDBRANCH  18  19
ENDBRANCH  17  18
ENDBRANCH  16  17
ENDBRANCH   1  15
TORSDOF 17
ENDMDL
