MODEL 1
REMARK VINA RESULT:      -6.5      0.000      0.000
REMARK  16 active torsions:
REMARK  status: ('A' for Active; 'I' for Inactive)
REMARK    1  A    between atoms: C1_1  and  C2_2 
REMARK    2  A    between atoms: C1_1  and  C5_5 
REMARK    3  A    between atoms: C3_3  and  C12_12 
REMARK    4  A    between atoms: C4_4  and  C5_5 
REMARK    5  A    between atoms: C4_4  and  C6_6 
REMARK    6  A    between atoms: C6_6  and  C7_7 
REMARK    7  A    between atoms: C7_7  and  C8_8 
REMARK    8  A    between atoms: C8_8  and  C9_9 
REMARK    9  A    between atoms: C9_9  and  C10_10 
REMARK   10  A    between atoms: C10_10  and  C11_11 
REMARK   11  A    between atoms: C11_11  and  C20_20 
REMARK   12  A    between atoms: C12_12  and  C13_13 
REMARK   13  A    between atoms: C14_14  and  C15_15 
REMARK   14  A    between atoms: C15_15  and  C16_16 
REMARK   15  A    between atoms: C17_17  and  C18_18 
REMARK   16  A    between atoms: C20_20  and  O2_22 
ROOT
HETATM    1  C5  UNL     1      51.728   2.828 109.774  1.00  0.00     0.004 C 
ENDROOT
BRANCH   1   2
HETATM    2  C1  UNL     1      50.266   3.012 110.190  1.00  0.00     0.027 C 
BRANCH   2   3
HETATM    3  C2  UNL     1      49.648   1.712 110.617  1.00  0.00    -0.030 C 
HETATM    4  C3  UNL     1      49.482   0.609 109.867  1.00  0.00    -0.027 C 
BRANCH   4   5
HETATM    5  C12 UNL     1      49.923   0.389 108.448  1.00  0.00     0.053 C 
BRANCH   5   6
HETATM    6  C13 UNL     1      48.794   0.643 107.494  1.00  0.00    -0.027 C 
HETATM    7  C14 UNL     1      48.823   0.542 106.154  1.00  0.00    -0.027 C 
BRANCH   7   8
HETATM    8  C15 UNL     1      49.994   0.178 105.290  1.00  0.00     0.053 C 
BRANCH   8   9
HETATM    9  C16 UNL     1      49.680   0.113 103.818  1.00  0.00    -0.027 C 
HETATM   10  C17 UNL     1      50.531   0.217 102.786  1.00  0.00    -0.031 C 
BRANCH  10  11
HETATM   11  C18 UNL     1      52.019   0.426 102.849  1.00  0.00     0.022 C 
HETATM   12  C19 UNL     1      52.374   1.881 102.597  1.00  0.00     0.009 C 
ENDBRANCH  10  11
ENDBRANCH   8   9
ENDBRANCH   7   8
ENDBRANCH   5   6
ENDBRANCH   4   5
ENDBRANCH   2   3
ENDBRANCH   1   2
BRANCH   1  13
HETATM   13  C4  UNL     1      51.984   3.443 108.395  1.00  0.00     0.000 C 
BRANCH  13  14
HETATM   14  C6  UNL     1      50.708   3.915 107.688  1.00  0.00     0.000 C 
BRANCH  14  15
HETATM   15  C7  UNL     1      50.762   3.743 106.169  1.00  0.00     0.000 C 
BRANCH  15  16
HETATM   16  C8  UNL     1      50.418   5.024 105.400  1.00  0.00     0.000 C 
BRANCH  16  17
HETATM   17  C9  UNL     1      50.114   4.852 103.909  1.00  0.00     0.001 C 
BRANCH  17  18
HETATM   18  C10 UNL     1      48.990   3.851 103.626  1.00  0.00     0.010 C 
BRANCH  18  19
HETATM   19  C11 UNL     1      48.949   3.417 102.163  1.00  0.00     0.110 C 
BRANCH  19  20
HETATM   20  C20 UNL     1      47.662   2.730 101.803  1.00  0.00     0.139 C 
HETATM   21  O1  UNL     1      47.550   1.602 101.353  1.00  0.00    -0.650 OA
BRANCH  20  22
HETATM   22  O2  UNL     1      46.575   3.501 102.013  1.00  0.00    -0.776 OA
HETATM   23  H34 UNL     1      46.776   3.972 102.851  1.00  0.00     0.167 HD
ENDBRANCH  20  22
ENDBRANCH  19  20
ENDBRANCH  18  19
ENDBRANCH  17  18
ENDBRANCH  16  17
ENDBRANCH  15  16
ENDBRANCH  14  15
ENDBRANCH  13  14
ENDBRANCH   1  13
TORSDOF 16
ENDMDL
