MODEL 1
REMARK VINA RESULT:      -6.8      0.000      0.000
REMARK  7 active torsions:
REMARK  status: ('A' for Active; 'I' for Inactive)
REMARK    1  A    between atoms: C1_1  and  C12_15 
REMARK    2  A    between atoms: C2_2  and  O3_14 
REMARK    3  A    between atoms: C4_4  and  C7_9 
REMARK    4  A    between atoms: C7_9  and  C8_10 
REMARK    5  A    between atoms: C8_10  and  C9_11 
REMARK    6  A    between atoms: C9_11  and  C10_12 
REMARK    7  A    between atoms: C17_20  and  C19_22 
ROOT
HETATM    1  C1  UNL     1      48.588   2.249 103.453  1.00  0.00     0.037 A 
HETATM    2  C2  UNL     1      49.067   3.505 103.466  1.00  0.00     0.127 A 
HETATM    3  C3  UNL     1      49.973   4.007 104.536  1.00  0.00     0.211 A 
HETATM    4  C4  UNL     1      50.350   3.084 105.629  1.00  0.00    -0.001 A 
HETATM    5  C5  UNL     1      49.879   1.832 105.608  1.00  0.00     0.066 A 
HETATM    6  C6  UNL     1      48.975   1.325 104.555  1.00  0.00     0.182 A 
HETATM    7  O1  UNL     1      48.579   0.169 104.635  1.00  0.00    -0.288 OA
HETATM    8  O2  UNL     1      50.378   5.164 104.473  1.00  0.00    -0.285 OA
ENDROOT
BRANCH   1   9
HETATM    9  C12 UNL     1      47.678   1.724 102.352  1.00  0.00     0.056 C 
HETATM   10  C13 UNL     1      46.541   0.888 102.912  1.00  0.00    -0.014 C 
HETATM   11  C14 UNL     1      46.079  -0.233 102.330  1.00  0.00    -0.087 C 
HETATM   12  C15 UNL     1      46.636  -0.746 101.024  1.00  0.00     0.034 C 
HETATM   13  C18 UNL     1      44.980  -1.054 102.941  1.00  0.00     0.043 C 
HETATM   14  C16 UNL     1      47.476   0.288 100.269  1.00  0.00     0.014 C 
HETATM   15  C17 UNL     1      48.463   0.991 101.217  1.00  0.00     0.026 C 
BRANCH  15  16
HETATM   16  C19 UNL     1      49.429   1.904 100.457  1.00  0.00    -0.088 C 
HETATM   17  C20 UNL     1      50.758   1.800 100.634  1.00  0.00     0.014 C 
HETATM   18  C21 UNL     1      48.860   2.917  99.499  1.00  0.00     0.043 C 
ENDBRANCH  15  16
ENDBRANCH   1   9
BRANCH   2  19
HETATM   19  O3  UNL     1      48.747   4.420 102.473  1.00  0.00    -0.356 OA
HETATM   20  H13 UNL     1      48.220   3.916 101.817  1.00  0.00     0.218 HD
ENDBRANCH   2  19
BRANCH   4  21
HETATM   21  C7  UNL     1      51.278   3.598 106.695  1.00  0.00     0.043 C 
BRANCH  21  22
HETATM   22  C8  UNL     1      52.258   2.523 107.175  1.00  0.00     0.005 C 
BRANCH  22  23
HETATM   23  C9  UNL     1      52.042   2.201 108.658  1.00  0.00    -0.000 C 
BRANCH  23  24
HETATM   24  C10 UNL     1      51.894   0.704 108.938  1.00  0.00    -0.005 C 
HETATM   25  C11 UNL     1      50.448   0.233 108.973  1.00  0.00     0.005 C 
ENDBRANCH  23  24
ENDBRANCH  22  23
ENDBRANCH  21  22
ENDBRANCH   4  21
TORSDOF 7
ENDMDL
