MODEL 1
REMARK VINA RESULT:      -6.9      0.000      0.000
REMARK  10 active torsions:
REMARK  status: ('A' for Active; 'I' for Inactive)
REMARK    1  A    between atoms: C3_3  and  C15_19 
REMARK    2  A    between atoms: C6_6  and  C7_7 
REMARK    3  A    between atoms: C7_7  and  O1_8 
REMARK    4  A    between atoms: O1_8  and  N1_9 
REMARK    5  A    between atoms: N2_10  and  O2_11 
REMARK    6  A    between atoms: O2_11  and  C8_12 
REMARK    7  A    between atoms: C8_12  and  C9_13 
REMARK    8  A    between atoms: C12_16  and  C16_20 
REMARK    9  A    between atoms: C15_19  and  O4_22 
REMARK   10  A    between atoms: C16_20  and  O6_24 
ROOT
HETATM    1  N1  UNL     1      51.554   6.339 103.380  1.00  0.00     0.002 NA
HETATM    2  N2  UNL     1      52.127   6.125 104.470  1.00  0.00     0.002 NA
ENDROOT
BRANCH   1   3
HETATM    3  O1  UNL     1      50.152   6.296 103.419  1.00  0.00    -0.233 OA
BRANCH   3   4
HETATM    4  C7  UNL     1      49.701   5.579 102.272  1.00  0.00     0.244 C 
BRANCH   4   5
HETATM    5  C6  UNL     1      49.051   4.267 102.657  1.00  0.00    -0.032 A 
HETATM    6  C1  UNL     1      49.586   3.028 102.266  1.00  0.00     0.010 A 
HETATM    7  C2  UNL     1      48.945   1.834 102.607  1.00  0.00     0.019 A 
HETATM    8  C3  UNL     1      47.748   1.860 103.328  1.00  0.00     0.037 A 
HETATM    9  C4  UNL     1      47.200   3.089 103.710  1.00  0.00     0.019 A 
HETATM   10  C5  UNL     1      47.846   4.282 103.374  1.00  0.00     0.010 A 
BRANCH   8  11
HETATM   11  C15 UNL     1      47.024   0.619 103.697  1.00  0.00     0.176 C 
HETATM   12  O3  UNL     1      47.340  -0.154 104.581  1.00  0.00    -0.646 OA
BRANCH  11  13
HETATM   13  O4  UNL     1      45.938   0.401 102.935  1.00  0.00    -0.773 OA
HETATM   14  H13 UNL     1      46.274  -0.145 102.195  1.00  0.00     0.167 HD
ENDBRANCH  11  13
ENDBRANCH   8  11
ENDBRANCH   4   5
ENDBRANCH   3   4
ENDBRANCH   1   3
BRANCH   2  15
HETATM   15  O2  UNL     1      51.280   5.864 105.559  1.00  0.00    -0.233 OA
BRANCH  15  16
HETATM   16  C8  UNL     1      52.028   5.222 106.587  1.00  0.00     0.244 C 
BRANCH  16  17
HETATM   17  C9  UNL     1      51.511   3.820 106.791  1.00  0.00    -0.032 A 
HETATM   18  C10 UNL     1      50.429   3.340 106.037  1.00  0.00     0.010 A 
HETATM   19  C11 UNL     1      49.965   2.034 106.209  1.00  0.00     0.019 A 
HETATM   20  C12 UNL     1      50.581   1.186 107.137  1.00  0.00     0.037 A 
HETATM   21  C13 UNL     1      51.666   1.655 107.887  1.00  0.00     0.019 A 
HETATM   22  C14 UNL     1      52.127   2.962 107.714  1.00  0.00     0.010 A 
BRANCH  20  23
HETATM   23  C16 UNL     1      50.134  -0.212 107.347  1.00  0.00     0.176 C 
HETATM   24  O5  UNL     1      50.025  -0.773 108.421  1.00  0.00    -0.646 OA
BRANCH  23  25
HETATM   25  O6  UNL     1      49.843  -0.845 106.196  1.00  0.00    -0.773 OA
HETATM   26  H14 UNL     1      49.313  -1.617 106.482  1.00  0.00     0.167 HD
ENDBRANCH  23  25
ENDBRANCH  20  23
ENDBRANCH  16  17
ENDBRANCH  15  16
ENDBRANCH   2  15
TORSDOF 10
ENDMDL
