MODEL 1
REMARK VINA RESULT:      -6.1      0.000      0.000
REMARK  7 active torsions:
REMARK  status: ('A' for Active; 'I' for Inactive)
REMARK    1  A    between atoms: C1_1  and  O3_9 
REMARK    2  A    between atoms: C5_5  and  C6_6 
REMARK    3  A    between atoms: C5_5  and  O1_7 
REMARK    4  A    between atoms: C6_6  and  O2_8 
REMARK    5  A    between atoms: O6_12  and  P2_19 
REMARK    6  A    between atoms: P1_15  and  O9_18 
REMARK    7  A    between atoms: P2_19  and  O12_22 
ROOT
HETATM    1  C1  UNL     1      47.651   3.362 104.169  1.00  0.00     0.180 A 
HETATM    2  C2  UNL     1      47.597   3.805 102.680  1.00  0.00     0.181 A 
HETATM    3  C3  UNL     1      48.730   3.184 101.810  1.00  0.00     0.198 A 
HETATM    4  C4  UNL     1      48.950   1.707 102.185  1.00  0.00     0.198 A 
HETATM    5  C5  UNL     1      49.406   1.593 103.665  1.00  0.00     0.181 A 
HETATM    6  C6  UNL     1      49.031   2.818 104.535  1.00  0.00     0.180 A 
HETATM    7  O4  UNL     1      46.273   3.500 102.185  1.00  0.00    -0.390 OA
HETATM    8  O5  UNL     1      50.003   3.813 101.981  1.00  0.00    -0.279 OA
HETATM    9  O6  UNL     1      47.773   0.927 102.010  1.00  0.00    -0.279 OA
HETATM   10 NA1  UNL     1      48.640   2.833 102.468  1.00  0.00     0.000 Na
HETATM   11 NA2  UNL     1      48.640   2.833 102.468  1.00  0.00     0.000 Na
HETATM   12  P1  UNL     1      50.141   5.397 101.724  1.00  0.00     0.406 P 
HETATM   13  O7  UNL     1      49.841   6.151 102.984  1.00  0.00    -0.624 OA
HETATM   14  O8  UNL     1      49.559   5.743 100.386  1.00  0.00    -0.624 OA
HETATM   15  H10 UNL     1      46.364   2.889 101.415  1.00  0.00     0.210 HD
ENDROOT
BRANCH   9  16
HETATM   16  P2  UNL     1      47.324   0.458 100.534  1.00  0.00     0.406 P 
HETATM   17  O10 UNL     1      48.251   1.016  99.494  1.00  0.00    -0.624 OA
HETATM   18  O11 UNL     1      46.855  -0.965 100.517  1.00  0.00    -0.624 OA
BRANCH  16  19
HETATM   19  O12 UNL     1      46.019   1.395 100.377  1.00  0.00    -0.300 OA
HETATM   20  H12 UNL     1      45.674   1.120  99.505  1.00  0.00     0.223 HD
ENDBRANCH  16  19
ENDBRANCH   9  16
BRANCH   5  21
HETATM   21  O1  UNL     1      50.848   1.459 103.752  1.00  0.00    -0.390 OA
HETATM   22  H7  UNL     1      51.103   1.983 104.539  1.00  0.00     0.210 HD
ENDBRANCH   5  21
BRANCH   1  23
HETATM   23  O3  UNL     1      46.643   2.360 104.429  1.00  0.00    -0.390 OA
HETATM   24  H9  UNL     1      45.852   2.875 104.701  1.00  0.00     0.210 HD
ENDBRANCH   1  23
BRANCH   6  25
HETATM   25  O2  UNL     1      49.126   2.454 105.929  1.00  0.00    -0.390 OA
HETATM   26  H8  UNL     1      49.894   2.960 106.256  1.00  0.00     0.210 HD
ENDBRANCH   6  25
BRANCH  12  27
HETATM   27  O9  UNL     1      51.727   5.442 101.459  1.00  0.00    -0.300 OA
HETATM   28  H11 UNL     1      51.834   4.766 100.768  1.00  0.00     0.223 HD
ENDBRANCH  12  27
TORSDOF 7
ENDMDL
