MODEL 1
REMARK VINA RESULT:      -8.6      0.000      0.000
REMARK  10 active torsions:
REMARK  status: ('A' for Active; 'I' for Inactive)
REMARK    1  A    between atoms: C1_1  and  O2_20 
REMARK    2  A    between atoms: C7_8  and  C10_11 
REMARK    3  A    between atoms: C10_11  and  C11_12 
REMARK    4  A    between atoms: C11_12  and  C12_13 
REMARK    5  A    between atoms: C13_14  and  C14_15 
REMARK    6  A    between atoms: C14_15  and  C20_22 
REMARK    7  A    between atoms: C20_22  and  C21_23 
REMARK    8  A    between atoms: C22_24  and  C23_25 
REMARK    9  A    between atoms: C23_25  and  C25_27 
REMARK   10  A    between atoms: C25_27  and  C26_28 
ROOT
HETATM    1  C1  UNL     1      50.407   5.695 100.052  1.00  0.00     0.078 A 
HETATM    2  C2  UNL     1      50.760   6.215 101.311  1.00  0.00    -0.020 A 
HETATM    3  C3  UNL     1      50.101   5.715 102.457  1.00  0.00    -0.019 A 
HETATM    4  C4  UNL     1      49.175   4.656 102.321  1.00  0.00     0.083 A 
HETATM    5  C5  UNL     1      48.843   4.136 101.060  1.00  0.00    -0.015 A 
HETATM    6  C6  UNL     1      49.487   4.642  99.910  1.00  0.00    -0.019 A 
HETATM    7  O1  UNL     1      48.617   4.199 103.488  1.00  0.00    -0.339 OA
HETATM    8  C7  UNL     1      47.908   2.953 103.458  1.00  0.00     0.065 C 
HETATM    9  C8  UNL     1      47.009   2.882 102.216  1.00  0.00     0.043 C 
HETATM   10  C9  UNL     1      47.821   3.034 100.941  1.00  0.00     0.045 C 
HETATM   11  C15 UNL     1      46.995   2.966 104.697  1.00  0.00     0.046 C 
HETATM   12  C16 UNL     1      50.408   6.270 103.828  1.00  0.00     0.052 C 
HETATM   13  C17 UNL     1      49.150   4.109  98.539  1.00  0.00     0.052 C 
HETATM   14  C18 UNL     1      51.800   7.301 101.427  1.00  0.00     0.052 C 
ENDROOT
BRANCH   8  15
HETATM   15  C10 UNL     1      48.899   1.763 103.533  1.00  0.00     0.042 C 
BRANCH  15  16
HETATM   16  C11 UNL     1      48.476   0.635 104.482  1.00  0.00     0.030 C 
BRANCH  16  17
HETATM   17  C12 UNL     1      49.616   0.263 105.395  1.00  0.00    -0.024 C 
HETATM   18  C13 UNL     1      49.657  -0.736 106.300  1.00  0.00    -0.087 C 
HETATM   19  C19 UNL     1      48.545  -1.726 106.526  1.00  0.00     0.043 C 
BRANCH  18  20
HETATM   20  C14 UNL     1      50.906  -0.961 107.136  1.00  0.00     0.037 C 
BRANCH  20  21
HETATM   21  C20 UNL     1      51.070   0.020 108.306  1.00  0.00     0.031 C 
BRANCH  21  22
HETATM   22  C21 UNL     1      51.459   1.408 107.859  1.00  0.00    -0.024 C 
HETATM   23  C22 UNL     1      52.029   2.391 108.584  1.00  0.00    -0.087 C 
HETATM   24  C24 UNL     1      52.337   2.278 110.057  1.00  0.00     0.043 C 
BRANCH  23  25
HETATM   25  C23 UNL     1      52.435   3.744 108.008  1.00  0.00     0.037 C 
BRANCH  25  26
HETATM   26  C25 UNL     1      52.285   3.954 106.494  1.00  0.00     0.031 C 
BRANCH  26  27
HETATM   27  C26 UNL     1      52.769   5.322 106.082  1.00  0.00    -0.024 C 
HETATM   28  C27 UNL     1      54.018   5.698 105.746  1.00  0.00    -0.091 C 
HETATM   29  C28 UNL     1      54.308   7.122 105.349  1.00  0.00     0.042 C 
HETATM   30  C29 UNL     1      55.226   4.801 105.731  1.00  0.00     0.042 C 
ENDBRANCH  26  27
ENDBRANCH  25  26
ENDBRANCH  23  25
ENDBRANCH  21  22
ENDBRANCH  20  21
ENDBRANCH  18  20
ENDBRANCH  16  17
ENDBRANCH  15  16
ENDBRANCH   8  15
BRANCH   1  31
HETATM   31  O2  UNL     1      50.943   6.208  98.900  1.00  0.00    -0.360 OA
HETATM   32  H24 UNL     1      51.551   6.928  99.121  1.00  0.00     0.217 HD
ENDBRANCH   1  31
TORSDOF 10
ENDMDL
