MODEL 1
REMARK VINA RESULT:      -6.9      0.000      0.000
REMARK  10 active torsions:
REMARK  status: ('A' for Active; 'I' for Inactive)
REMARK    1  A    between atoms: C2_2  and  O2_8 
REMARK    2  A    between atoms: C5_5  and  C6_6 
REMARK    3  A    between atoms: C5_5  and  O3_9 
REMARK    4  A    between atoms: C6_6  and  O6_12 
REMARK    5  A    between atoms: O4_10  and  P1_16 
REMARK    6  A    between atoms: O5_11  and  P2_20 
REMARK    7  A    between atoms: O6_12  and  P3_24 
REMARK    8  A    between atoms: P1_16  and  O9_19 
REMARK    9  A    between atoms: P2_20  and  O12_23 
REMARK   10  A    between atoms: P3_24  and  O15_27 
ROOT
HETATM    1  C1  UNL     1      52.918  12.011  98.942  1.00  0.00     0.181 A 
HETATM    2  C2  UNL     1      52.285  10.899  99.801  1.00  0.00     0.181 A 
HETATM    3  C3  UNL     1      51.788   9.713  98.957  1.00  0.00     0.198 A 
HETATM    4  C4  UNL     1      50.892  10.173  97.801  1.00  0.00     0.198 A 
HETATM    5  C5  UNL     1      51.446  11.360  96.994  1.00  0.00     0.182 A 
HETATM    6  C6  UNL     1      51.941  12.528  97.871  1.00  0.00     0.197 A 
HETATM    7  O1  UNL     1      54.115  11.543  98.289  1.00  0.00    -0.390 OA
HETATM    8  O4  UNL     1      50.718   9.102  96.858  1.00  0.00    -0.279 OA
HETATM    9  O5  UNL     1      50.952   8.898  99.795  1.00  0.00    -0.279 OA
HETATM   10 NA1  UNL     1      51.774  10.647  98.336  1.00  0.00     0.000 Na
HETATM   11 NA2  UNL     1      51.774  10.647  98.336  1.00  0.00     0.000 Na
HETATM   12 NA3  UNL     1      51.774  10.647  98.336  1.00  0.00     0.000 Na
HETATM   13  H7  UNL     1      54.549  12.377  98.005  1.00  0.00     0.210 HD
ENDROOT
BRANCH   6  14
HETATM   14  O6  UNL     1      52.557  13.486  96.994  1.00  0.00    -0.279 OA
BRANCH  14  15
HETATM   15  P3  UNL     1      51.934  14.959  96.833  1.00  0.00     0.406 P 
HETATM   16  O13 UNL     1      52.993  15.919  96.359  1.00  0.00    -0.624 OA
HETATM   17  O14 UNL     1      50.540  14.955  96.281  1.00  0.00    -0.624 OA
BRANCH  15  18
HETATM   18  O15 UNL     1      51.866  15.339  98.404  1.00  0.00    -0.300 OA
HETATM   19  H12 UNL     1      52.769  15.088  98.675  1.00  0.00     0.223 HD
ENDBRANCH  15  18
ENDBRANCH  14  15
ENDBRANCH   6  14
BRANCH   2  20
HETATM   20  O2  UNL     1      53.231  10.499 100.812  1.00  0.00    -0.390 OA
HETATM   21  H8  UNL     1      52.780   9.849 101.417  1.00  0.00     0.210 HD
ENDBRANCH   2  20
BRANCH   5  22
HETATM   22  O3  UNL     1      50.393  11.829  96.112  1.00  0.00    -0.390 OA
HETATM   23  H9  UNL     1      50.275  12.777  96.330  1.00  0.00     0.210 HD
ENDBRANCH   5  22
BRANCH   8  24
HETATM   24  P1  UNL     1      49.320   8.302  96.767  1.00  0.00     0.406 P 
HETATM   25  O7  UNL     1      49.495   6.918  97.334  1.00  0.00    -0.624 OA
HETATM   26  O8  UNL     1      48.699   8.517  95.415  1.00  0.00    -0.624 OA
BRANCH  24  27
HETATM   27  O9  UNL     1      48.457   9.164  97.818  1.00  0.00    -0.300 OA
HETATM   28  H10 UNL     1      47.545   8.802  97.806  1.00  0.00     0.223 HD
ENDBRANCH  24  27
ENDBRANCH   8  24
BRANCH   9  29
HETATM   29  P2  UNL     1      51.561   7.557 100.457  1.00  0.00     0.406 P 
HETATM   30  O10 UNL     1      52.286   7.954 101.713  1.00  0.00    -0.624 OA
HETATM   31  O11 UNL     1      50.492   6.500 100.435  1.00  0.00    -0.624 OA
BRANCH  29  32
HETATM   32  O12 UNL     1      52.626   7.188  99.311  1.00  0.00    -0.300 OA
HETATM   33  H11 UNL     1      53.415   7.759  99.453  1.00  0.00     0.223 HD
ENDBRANCH  29  32
ENDBRANCH   9  29
TORSDOF 10
ENDMDL
