MODEL 1
REMARK VINA RESULT:      -6.0      0.000      0.000
REMARK  6 active torsions:
REMARK  status: ('A' for Active; 'I' for Inactive)
REMARK    1  A    between atoms: C5_5  and  O1_9 
REMARK    2  A    between atoms: O1_9  and  C7_10 
REMARK    3  A    between atoms: C9_12  and  N1_13 
REMARK    4  A    between atoms: N1_13  and  C10_14 
REMARK    5  A    between atoms: C10_14  and  C11_15 
REMARK    6  A    between atoms: C11_15  and  O2_16 
ROOT
HETATM    1  C7  UNL     1      49.171   2.387 104.830  1.00  0.00     0.177 A 
HETATM    2  C8  UNL     1      48.693   1.251 103.967  1.00  0.00     0.046 A 
HETATM    3  C9  UNL     1      47.174   1.284 103.797  1.00  0.00     0.116 A 
HETATM    4 CL3  UNL     1      47.978   2.840 104.875  1.00  0.00    -0.145 Cl
HETATM    5  H16 UNL     1      49.323   3.103 105.050  1.00  0.00     0.145 HD
ENDROOT
BRANCH   1   6
HETATM    6  O1  UNL     1      50.576   2.312 104.957  1.00  0.00    -0.349 OA
BRANCH   6   7
HETATM    7  C5  UNL     1      51.174   2.540 106.210  1.00  0.00     0.092 A 
HETATM    8  C4  UNL     1      51.234   1.549 107.155  1.00  0.00     0.089 A 
HETATM    9  C3  UNL     1      51.834   1.803 108.385  1.00  0.00     0.058 A 
HETATM   10 CL2  UNL     1      50.573  -0.038 106.844  1.00  0.00    -0.080 Cl
HETATM   11  C2  UNL     1      52.367   3.044 108.667  1.00  0.00     0.026 A 
HETATM   12 CL1  UNL     1      51.890   0.514 109.560  1.00  0.00    -0.082 Cl
HETATM   13  C1  UNL     1      52.303   4.043 107.711  1.00  0.00     0.005 A 
HETATM   14  C6  UNL     1      51.707   3.783 106.489  1.00  0.00     0.038 A 
ENDBRANCH   6   7
ENDBRANCH   1   6
BRANCH   3  15
HETATM   15  N1  UNL     1      46.849   2.524 103.184  1.00  0.00    -0.419 N 
HETATM   16  H10 UNL     1      47.200   3.362 103.682  1.00  0.00     0.153 HD
BRANCH  15  17
HETATM   17  C10 UNL     1      46.868   2.603 101.788  1.00  0.00     0.139 C 
BRANCH  17  18
HETATM   18  C11 UNL     1      47.846   3.525 101.155  1.00  0.00     0.183 C 
BRANCH  18  19
HETATM   19  O2  UNL     1      47.190   4.686 100.748  1.00  0.00    -0.399 OA
HETATM   20  H15 UNL     1      47.551   5.030  99.893  1.00  0.00     0.209 HD
ENDBRANCH  18  19
ENDBRANCH  17  18
ENDBRANCH  15  17
ENDBRANCH   3  15
TORSDOF 6
ENDMDL
