MODEL 1
REMARK VINA RESULT:      -8.0      0.000      0.000
REMARK  16 active torsions:
REMARK  status: ('A' for Active; 'I' for Inactive)
REMARK    1  A    between atoms: C2_2  and  O2_21 
REMARK    2  A    between atoms: C3_3  and  C6_6 
REMARK    3  A    between atoms: C4_4  and  C7_7 
REMARK    4  A    between atoms: C5_5  and  O3_22 
REMARK    5  A    between atoms: C7_7  and  C8_8 
REMARK    6  A    between atoms: C9_9  and  C10_10 
REMARK    7  A    between atoms: C10_10  and  C11_11 
REMARK    8  A    between atoms: C10_10  and  O1_20 
REMARK    9  A    between atoms: C11_11  and  C12_12 
REMARK   10  A    between atoms: C12_12  and  C13_13 
REMARK   11  A    between atoms: C15_15  and  C19_19 
REMARK   12  A    between atoms: C20_23  and  C21_24 
REMARK   13  A    between atoms: C21_24  and  C22_25 
REMARK   14  A    between atoms: C22_25  and  C23_26 
REMARK   15  A    between atoms: C23_26  and  C24_27 
REMARK       I    between atoms: C24_27  and  N1_28 
REMARK   16  A    between atoms: N1_28  and  C25_30 
ROOT
HETATM    1  C1  UNL     1      46.983  -5.958 106.869  1.00  0.00     0.064 C 
HETATM    2  C2  UNL     1      46.107  -5.228 105.866  1.00  0.00     0.128 C 
HETATM    3  C3  UNL     1      46.406  -3.753 106.179  1.00  0.00     0.043 C 
HETATM    4  C4  UNL     1      47.942  -3.750 106.360  1.00  0.00     0.028 C 
HETATM    5  C5  UNL     1      48.290  -5.169 106.877  1.00  0.00     0.125 C 
ENDROOT
BRANCH   3   6
HETATM    6  C6  UNL     1      45.943  -2.829 105.077  1.00  0.00    -0.021 C 
HETATM    7  C9  UNL     1      45.910  -3.177 103.779  1.00  0.00     0.001 C 
BRANCH   7   8
HETATM    8  C10 UNL     1      45.444  -2.337 102.614  1.00  0.00     0.141 C 
BRANCH   8   9
HETATM    9  C11 UNL     1      46.332  -1.140 102.237  1.00  0.00     0.040 C 
BRANCH   9  10
HETATM   10  C12 UNL     1      46.290   0.009 103.251  1.00  0.00     0.041 C 
BRANCH  10  11
HETATM   11  C13 UNL     1      47.399   1.018 103.090  1.00  0.00    -0.057 A 
HETATM   12  C14 UNL     1      48.145   1.431 104.203  1.00  0.00     0.023 A 
HETATM   13  C15 UNL     1      49.186   2.368 104.072  1.00  0.00     0.048 A 
HETATM   14  C16 UNL     1      49.477   2.883 102.802  1.00  0.00     0.016 A 
HETATM   15  C17 UNL     1      48.736   2.481 101.690  1.00  0.00     0.001 A 
HETATM   16  C18 UNL     1      47.701   1.556 101.833  1.00  0.00     0.007 A 
BRANCH  13  17
HETATM   17  C19 UNL     1      49.985   2.780 105.283  1.00  0.00     0.417 C 
HETATM   18  F1  UNL     1      49.310   2.591 106.452  1.00  0.00    -0.166 F 
HETATM   19  F2  UNL     1      51.147   2.076 105.403  1.00  0.00    -0.166 F 
HETATM   20  F3  UNL     1      50.346   4.094 105.274  1.00  0.00    -0.166 F 
ENDBRANCH  13  17
ENDBRANCH  10  11
ENDBRANCH   9  10
ENDBRANCH   8   9
BRANCH   8  21
HETATM   21  O1  UNL     1      44.140  -1.857 102.939  1.00  0.00    -0.392 OA
HETATM   22  H21 UNL     1      43.880  -2.301 103.764  1.00  0.00     0.210 HD
ENDBRANCH   8  21
ENDBRANCH   7   8
ENDBRANCH   3   6
BRANCH   2  23
HETATM   23  O2  UNL     1      44.745  -5.566 106.065  1.00  0.00    -0.395 OA
HETATM   24  H22 UNL     1      44.378  -4.929 106.704  1.00  0.00     0.210 HD
ENDBRANCH   2  23
BRANCH   4  25
HETATM   25  C7  UNL     1      48.502  -2.545 107.134  1.00  0.00     0.034 C 
BRANCH  25  26
HETATM   26  C8  UNL     1      49.302  -1.555 106.336  1.00  0.00    -0.030 C 
HETATM   27  C20 UNL     1      50.089  -0.570 106.797  1.00  0.00    -0.031 C 
BRANCH  27  28
HETATM   28  C21 UNL     1      50.379  -0.187 108.221  1.00  0.00     0.027 C 
BRANCH  28  29
HETATM   29  C22 UNL     1      51.792   0.376 108.456  1.00  0.00     0.013 C 
BRANCH  29  30
HETATM   30  C23 UNL     1      51.943   1.165 109.763  1.00  0.00     0.103 C 
BRANCH  30  31
HETATM   31  C24 UNL     1      52.294   2.626 109.530  1.00  0.00     0.217 C 
HETATM   32  N1  UNL     1      52.164   3.017 108.215  1.00  0.00    -0.361 N 
HETATM   33  H31 UNL     1      51.933   2.325 107.513  1.00  0.00     0.162 HD
HETATM   34  O4  UNL     1      52.628   3.388 110.434  1.00  0.00    -0.274 OA
BRANCH  32  35
HETATM   35  C25 UNL     1      52.531   4.345 107.766  1.00  0.00     0.118 C 
HETATM   36  C26 UNL     1      53.493   4.289 106.592  1.00  0.00     0.026 C 
ENDBRANCH  32  35
ENDBRANCH  30  31
ENDBRANCH  29  30
ENDBRANCH  28  29
ENDBRANCH  27  28
ENDBRANCH  25  26
ENDBRANCH   4  25
BRANCH   5  37
HETATM   37  O3  UNL     1      48.881  -5.227 108.161  1.00  0.00    -0.395 OA
HETATM   38  H23 UNL     1      48.242  -4.882 108.806  1.00  0.00     0.210 HD
ENDBRANCH   5  37
TORSDOF 16
ENDMDL
