MODEL 1
REMARK VINA RESULT:      -9.2      0.000      0.000
REMARK  7 active torsions:
REMARK  status: ('A' for Active; 'I' for Inactive)
REMARK    1  A    between atoms: C1_2  and  C9_13 
REMARK    2  A    between atoms: C4_6  and  N5_22 
REMARK    3  A    between atoms: N3_7  and  C6_10 
REMARK    4  A    between atoms: N5_22  and  C17_23 
REMARK    5  A    between atoms: C17_23  and  C18_24 
REMARK    6  A    between atoms: C18_24  and  C19_25 
REMARK    7  A    between atoms: C22_28  and  O1_31 
ROOT
HETATM    1  N1  UNL     1      48.622   2.478 104.978  1.00  0.00    -0.214 NA
HETATM    2  C1  UNL     1      49.724   3.252 104.854  1.00  0.00     0.165 A 
HETATM    3  N2  UNL     1      50.094   3.972 103.770  1.00  0.00    -0.208 NA
HETATM    4  C2  UNL     1      49.216   3.845 102.766  1.00  0.00     0.166 A 
HETATM    5  C3  UNL     1      48.060   3.087 102.760  1.00  0.00     0.144 A 
HETATM    6  C4  UNL     1      47.763   2.365 103.931  1.00  0.00     0.138 A 
HETATM    7  N3  UNL     1      49.264   4.429 101.529  1.00  0.00    -0.320 N 
HETATM    8  C5  UNL     1      48.152   4.016 100.839  1.00  0.00     0.212 A 
HETATM    9  N4  UNL     1      47.400   3.206 101.554  1.00  0.00    -0.236 NA
ENDROOT
BRANCH   6  10
HETATM   10  N5  UNL     1      46.628   1.549 104.010  1.00  0.00    -0.275 NA
HETATM   11  H14 UNL     1      46.012   1.903 104.742  1.00  0.00     0.129 HD
BRANCH  10  12
HETATM   12  C17 UNL     1      46.892   0.116 104.067  1.00  0.00     0.098 C 
BRANCH  12  13
HETATM   13  C18 UNL     1      45.869  -0.662 103.229  1.00  0.00     0.053 C 
BRANCH  13  14
HETATM   14  C19 UNL     1      45.833  -2.140 103.546  1.00  0.00    -0.057 A 
HETATM   15  C20 UNL     1      45.485  -3.073 102.556  1.00  0.00     0.010 A 
HETATM   16  C21 UNL     1      45.465  -4.439 102.844  1.00  0.00     0.037 A 
HETATM   17  C22 UNL     1      45.795  -4.873 104.124  1.00  0.00     0.065 A 
HETATM   18  C23 UNL     1      46.144  -3.965 105.116  1.00  0.00     0.037 A 
HETATM   19  C24 UNL     1      46.163  -2.600 104.828  1.00  0.00     0.010 A 
BRANCH  17  20
HETATM   20  O1  UNL     1      45.790  -6.197 104.449  1.00  0.00    -0.361 OA
HETATM   21  H23 UNL     1      45.714  -6.715 103.631  1.00  0.00     0.217 HD
ENDBRANCH  17  20
ENDBRANCH  13  14
ENDBRANCH  12  13
ENDBRANCH  10  12
ENDBRANCH   6  10
BRANCH   2  22
HETATM   22  C9  UNL     1      50.623   3.316 106.013  1.00  0.00     0.030 A 
HETATM   23  C10 UNL     1      51.344   4.468 106.272  1.00  0.00     0.066 A 
HETATM   24  S1  UNL     1      52.336   4.346 107.647  1.00  0.00    -0.100 SA
HETATM   25  C11 UNL     1      51.825   2.733 107.957  1.00  0.00     0.016 A 
HETATM   26  C12 UNL     1      50.897   2.291 107.006  1.00  0.00    -0.004 A 
HETATM   27  C13 UNL     1      52.250   1.913 109.023  1.00  0.00     0.019 A 
HETATM   28  C16 UNL     1      50.389   0.974 107.166  1.00  0.00     0.014 A 
HETATM   29  C15 UNL     1      50.808   0.156 108.221  1.00  0.00     0.001 A 
HETATM   30  C14 UNL     1      51.733   0.623 109.140  1.00  0.00     0.001 A 
ENDBRANCH   2  22
BRANCH   7  31
HETATM   31  C6  UNL     1      50.286   5.328 101.013  1.00  0.00     0.084 C 
HETATM   32  C7  UNL     1      50.403   6.605 101.845  1.00  0.00     0.032 C 
HETATM   33  C8  UNL     1      50.082   5.639  99.529  1.00  0.00     0.032 C 
ENDBRANCH   7  31
TORSDOF 7
ENDMDL
