MODEL 1
REMARK VINA RESULT:      -7.1      0.000      0.000
REMARK  15 active torsions:
REMARK  status: ('A' for Active; 'I' for Inactive)
REMARK    1  A    between atoms: C3_3  and  N1_6 
REMARK       I    between atoms: N1_6  and  C6_7 
REMARK    2  A    between atoms: C6_7  and  C7_8 
REMARK    3  A    between atoms: C7_8  and  C8_10 
REMARK    4  A    between atoms: C8_10  and  C9_11 
REMARK    5  A    between atoms: C9_11  and  C10_12 
REMARK    6  A    between atoms: C10_12  and  C11_13 
REMARK    7  A    between atoms: C11_13  and  C12_14 
REMARK    8  A    between atoms: C12_14  and  C13_15 
REMARK       I    between atoms: C13_15  and  N2_16 
REMARK    9  A    between atoms: N2_16  and  O3_18 
REMARK   10  A    between atoms: C14_19  and  C15_20 
REMARK   11  A    between atoms: C15_20  and  C16_21 
REMARK   12  A    between atoms: C19_25  and  N3_28 
REMARK       I    between atoms: N3_28  and  C22_29 
REMARK   13  A    between atoms: C22_29  and  C23_31 
REMARK   14  A    between atoms: C23_31  and  C24_32 
REMARK   15  A    between atoms: C24_32  and  C25_33 
ROOT
HETATM    1  C25 UNL     1      53.821   3.444 106.553  1.00  0.00     0.093 C 
HETATM    2  C26 UNL     1      54.143   4.793 106.065  1.00  0.00    -0.117 C 
HETATM    3  C27 UNL     1      54.390   5.899 105.663  1.00  0.00     0.012 C 
ENDROOT
BRANCH   1   4
HETATM    4  C24 UNL     1      52.581   3.436 107.448  1.00  0.00     0.021 C 
BRANCH   4   5
HETATM    5  C23 UNL     1      51.336   3.955 106.727  1.00  0.00     0.104 C 
BRANCH   5   6
HETATM    6  C22 UNL     1      50.548   2.843 106.049  1.00  0.00     0.222 C 
HETATM    7  N3  UNL     1      49.853   3.326 104.950  1.00  0.00    -0.327 N 
HETATM    8  H24 UNL     1      49.975   4.310 104.737  1.00  0.00     0.169 HD
HETATM    9  O5  UNL     1      50.557   1.691 106.460  1.00  0.00    -0.273 OA
BRANCH   7  10
HETATM   10  C19 UNL     1      48.983   2.616 104.099  1.00  0.00     0.034 A 
HETATM   11  C18 UNL     1      47.739   2.245 104.627  1.00  0.00     0.030 A 
HETATM   12  C17 UNL     1      46.824   1.511 103.865  1.00  0.00     0.018 A 
HETATM   13  C16 UNL     1      47.136   1.149 102.550  1.00  0.00     0.015 A 
HETATM   14  C21 UNL     1      48.374   1.522 102.019  1.00  0.00     0.018 A 
HETATM   15  C20 UNL     1      49.292   2.252 102.788  1.00  0.00     0.030 A 
BRANCH  13  16
HETATM   16  C15 UNL     1      46.220   0.323 101.713  1.00  0.00     0.192 C 
HETATM   17  O4  UNL     1      45.502   0.845 100.866  1.00  0.00    -0.287 OA
BRANCH  16  18
HETATM   18  C14 UNL     1      46.188  -1.148 101.844  1.00  0.00     0.015 A 
HETATM   19  C1  UNL     1      46.377  -1.924 100.701  1.00  0.00     0.018 A 
HETATM   20  C2  UNL     1      46.387  -3.317 100.807  1.00  0.00     0.030 A 
HETATM   21  C3  UNL     1      46.189  -3.943 102.047  1.00  0.00     0.034 A 
HETATM   22  C4  UNL     1      45.968  -3.151 103.179  1.00  0.00     0.030 A 
HETATM   23  C5  UNL     1      45.965  -1.755 103.081  1.00  0.00     0.018 A 
BRANCH  21  24
HETATM   24  N1  UNL     1      46.239  -5.351 102.065  1.00  0.00    -0.327 N 
HETATM   25  C6  UNL     1      45.191  -6.235 102.275  1.00  0.00     0.222 C 
HETATM   26  O1  UNL     1      44.017  -5.939 102.461  1.00  0.00    -0.273 OA
HETATM   27  H5  UNL     1      47.144  -5.767 101.869  1.00  0.00     0.169 HD
BRANCH  25  28
HETATM   28  C7  UNL     1      45.677  -7.678 102.273  1.00  0.00     0.103 C 
BRANCH  28  29
HETATM   29  C8  UNL     1      47.149  -7.803 102.660  1.00  0.00     0.009 C 
BRANCH  29  30
HETATM   30  C9  UNL     1      47.376  -8.375 104.064  1.00  0.00     0.000 C 
BRANCH  30  31
HETATM   31  C10 UNL     1      48.696  -7.993 104.741  1.00  0.00     0.000 C 
BRANCH  31  32
HETATM   32  C11 UNL     1      48.762  -6.525 105.181  1.00  0.00     0.009 C 
BRANCH  32  33
HETATM   33  C12 UNL     1      47.447  -6.056 105.803  1.00  0.00     0.105 C 
BRANCH  33  34
HETATM   34  C13 UNL     1      47.508  -4.630 106.317  1.00  0.00     0.240 C 
HETATM   35  N2  UNL     1      46.265  -4.065 106.509  1.00  0.00    -0.237 N 
HETATM   36  H18 UNL     1      45.443  -4.631 106.689  1.00  0.00     0.197 HD
HETATM   37  O2  UNL     1      48.545  -4.016 106.563  1.00  0.00    -0.271 OA
BRANCH  35  38
HETATM   38  O3  UNL     1      46.281  -2.786 107.112  1.00  0.00    -0.287 OA
HETATM   39  H19 UNL     1      45.333  -2.534 107.096  1.00  0.00     0.244 HD
ENDBRANCH  35  38
ENDBRANCH  33  34
ENDBRANCH  32  33
ENDBRANCH  31  32
ENDBRANCH  30  31
ENDBRANCH  29  30
ENDBRANCH  28  29
ENDBRANCH  25  28
ENDBRANCH  21  24
ENDBRANCH  16  18
ENDBRANCH  13  16
ENDBRANCH   7  10
ENDBRANCH   5   6
ENDBRANCH   4   5
ENDBRANCH   1   4
TORSDOF 15
ENDMDL
