MODEL 1
REMARK VINA RESULT:      -7.9      0.000      0.000
REMARK  7 active torsions:
REMARK  status: ('A' for Active; 'I' for Inactive)
REMARK    1  A    between atoms: N1_7  and  C11_13 
REMARK    2  A    between atoms: C8_9  and  C9_10 
REMARK    3  A    between atoms: C9_10  and  C10_12 
REMARK    4  A    between atoms: C10_12  and  C16_18 
REMARK    5  A    between atoms: C11_13  and  C12_14 
REMARK    6  A    between atoms: C12_14  and  C13_15 
REMARK    7  A    between atoms: C13_15  and  C14_16 
ROOT
HETATM    1  C1  UNL     1      50.062  -1.170 107.131  1.00  0.00     0.001 A 
HETATM    2  C2  UNL     1      50.760  -0.615 108.194  1.00  0.00     0.002 A 
HETATM    3  C3  UNL     1      51.162   0.720 108.161  1.00  0.00     0.030 A 
HETATM    4  C4  UNL     1      50.844   1.488 107.027  1.00  0.00     0.045 A 
HETATM    5  C5  UNL     1      50.142   0.959 105.933  1.00  0.00     0.006 A 
HETATM    6  C6  UNL     1      49.750  -0.400 106.005  1.00  0.00     0.014 A 
HETATM    7  N1  UNL     1      51.117   2.805 106.736  1.00  0.00    -0.355 N 
HETATM    8  C7  UNL     1      50.617   3.127 105.508  1.00  0.00     0.107 A 
HETATM    9  C8  UNL     1      50.000   2.013 104.962  1.00  0.00     0.038 A 
ENDROOT
BRANCH   9  10
HETATM   10  C9  UNL     1      49.362   2.047 103.636  1.00  0.00     0.166 C 
HETATM   11  O1  UNL     1      50.057   1.978 102.619  1.00  0.00    -0.292 OA
BRANCH  10  12
HETATM   12  C10 UNL     1      47.849   2.165 103.556  1.00  0.00     0.122 C 
BRANCH  12  13
HETATM   13  C16 UNL     1      47.142   0.914 103.080  1.00  0.00    -0.051 A 
HETATM   14  C17 UNL     1      46.681  -0.036 104.004  1.00  0.00     0.009 A 
HETATM   15  C18 UNL     1      46.036  -1.195 103.563  1.00  0.00     0.024 A 
HETATM   16  C19 UNL     1      45.855  -1.411 102.200  1.00  0.00     0.034 A 
HETATM   17  C20 UNL     1      46.315  -0.480 101.271  1.00  0.00     0.024 A 
HETATM   18 CL1  UNL     1      45.058  -2.838 101.659  1.00  0.00    -0.084 Cl
HETATM   19  C21 UNL     1      46.960   0.677 101.708  1.00  0.00     0.009 A 
ENDBRANCH  12  13
ENDBRANCH  10  12
ENDBRANCH   9  10
BRANCH   7  20
HETATM   20  C11 UNL     1      51.819   3.745 107.601  1.00  0.00     0.128 C 
BRANCH  20  21
HETATM   21  C12 UNL     1      52.454   4.886 106.807  1.00  0.00     0.020 C 
BRANCH  21  22
HETATM   22  C13 UNL     1      53.879   4.580 106.342  1.00  0.00     0.001 C 
BRANCH  22  23
HETATM   23  C14 UNL     1      54.522   5.729 105.564  1.00  0.00    -0.004 C 
HETATM   24  C15 UNL     1      53.471   6.679 105.010  1.00  0.00     0.005 C 
ENDBRANCH  22  23
ENDBRANCH  21  22
ENDBRANCH  20  21
ENDBRANCH   7  20
TORSDOF 7
ENDMDL
