MODEL 1
REMARK VINA RESULT:      -6.2      0.000      0.000
REMARK  17 active torsions:
REMARK  status: ('A' for Active; 'I' for Inactive)
REMARK    1  A    between atoms: C1_1  and  C2_2 
REMARK    2  A    between atoms: C2_2  and  C3_3 
REMARK    3  A    between atoms: C3_3  and  C4_4 
REMARK    4  A    between atoms: C4_4  and  C6_6 
REMARK    5  A    between atoms: C5_5  and  C8_8 
REMARK    6  A    between atoms: C6_6  and  C7_7 
REMARK    7  A    between atoms: C7_7  and  C10_10 
REMARK    8  A    between atoms: C8_8  and  C9_9 
REMARK    9  A    between atoms: C9_9  and  C11_11 
REMARK   10  A    between atoms: C10_10  and  C12_12 
REMARK   11  A    between atoms: C11_11  and  C15_15 
REMARK   12  A    between atoms: C12_12  and  C13_13 
REMARK   13  A    between atoms: C13_13  and  C14_14 
REMARK   14  A    between atoms: C14_14  and  C19_23 
REMARK   15  A    between atoms: C15_15  and  N1_16 
REMARK       I    between atoms: N1_16  and  C16_17 
REMARK   16  A    between atoms: C16_17  and  C17_18 
REMARK       I    between atoms: C17_18  and  N2_21 
REMARK   17  A    between atoms: C19_23  and  O4_25 
ROOT
HETATM    1  C1  UNL     1      49.922   2.078 106.217  1.00  0.00    -0.031 C 
HETATM    2  C5  UNL     1      48.907   2.462 105.427  1.00  0.00    -0.031 C 
ENDROOT
BRANCH   1   3
HETATM    3  C2  UNL     1      50.670   0.775 106.180  1.00  0.00     0.027 C 
BRANCH   3   4
HETATM    4  C3  UNL     1      50.273  -0.180 107.309  1.00  0.00     0.004 C 
BRANCH   4   5
HETATM    5  C4  UNL     1      50.601   0.374 108.701  1.00  0.00     0.000 C 
BRANCH   5   6
HETATM    6  C6  UNL     1      52.043   0.876 108.773  1.00  0.00     0.000 C 
BRANCH   6   7
HETATM    7  C7  UNL     1      52.182   2.238 109.462  1.00  0.00     0.000 C 
BRANCH   7   8
HETATM    8  C10 UNL     1      52.338   3.446 108.532  1.00  0.00     0.000 C 
BRANCH   8   9
HETATM    9  C12 UNL     1      53.215   3.168 107.310  1.00  0.00     0.001 C 
BRANCH   9  10
HETATM   10  C13 UNL     1      53.339   4.414 106.426  1.00  0.00     0.010 C 
BRANCH  10  11
HETATM   11  C14 UNL     1      52.034   5.206 106.345  1.00  0.00     0.110 C 
BRANCH  11  12
HETATM   12  C19 UNL     1      51.942   6.063 105.110  1.00  0.00     0.139 C 
HETATM   13  O3  UNL     1      52.789   6.225 104.248  1.00  0.00    -0.650 OA
BRANCH  12  14
HETATM   14  O4  UNL     1      50.742   6.671 105.011  1.00  0.00    -0.776 OA
HETATM   15  H34 UNL     1      50.561   6.988 105.921  1.00  0.00     0.167 HD
ENDBRANCH  12  14
ENDBRANCH  11  12
ENDBRANCH  10  11
ENDBRANCH   9  10
ENDBRANCH   8   9
ENDBRANCH   7   8
ENDBRANCH   6   7
ENDBRANCH   5   6
ENDBRANCH   4   5
ENDBRANCH   3   4
ENDBRANCH   1   3
BRANCH   2  16
HETATM   16  C8  UNL     1      48.306   1.709 104.273  1.00  0.00     0.027 C 
BRANCH  16  17
HETATM   17  C9  UNL     1      47.014   2.333 103.736  1.00  0.00     0.005 C 
BRANCH  17  18
HETATM   18  C11 UNL     1      47.182   3.693 103.045  1.00  0.00     0.020 C 
BRANCH  18  19
HETATM   19  C15 UNL     1      47.535   3.656 101.561  1.00  0.00     0.123 C 
BRANCH  19  20
HETATM   20  N1  UNL     1      48.355   4.770 101.149  1.00  0.00    -0.353 N 
HETATM   21  C16 UNL     1      49.721   4.689 101.028  1.00  0.00     0.309 C 
HETATM   22  O1  UNL     1      50.403   3.684 101.165  1.00  0.00    -0.262 OA
HETATM   23  H29 UNL     1      47.941   5.694 101.060  1.00  0.00     0.162 HD
BRANCH  21  24
HETATM   24  C17 UNL     1      50.391   6.040 100.688  1.00  0.00     0.308 C 
HETATM   25  O2  UNL     1      50.635   6.332  99.525  1.00  0.00    -0.262 OA
HETATM   26  N2  UNL     1      50.662   6.811 101.796  1.00  0.00    -0.357 N 
HETATM   27  C18 UNL     1      51.399   8.040 101.713  1.00  0.00     0.149 C 
HETATM   28  H30 UNL     1      50.482   6.376 102.698  1.00  0.00     0.162 HD
ENDBRANCH  21  24
ENDBRANCH  19  20
ENDBRANCH  18  19
ENDBRANCH  17  18
ENDBRANCH  16  17
ENDBRANCH   2  16
TORSDOF 17
ENDMDL
