MODEL 1
REMARK VINA RESULT:      -8.1      0.000      0.000
REMARK  5 active torsions:
REMARK  status: ('A' for Active; 'I' for Inactive)
REMARK    1  A    between atoms: C7_7  and  C10_12 
REMARK    2  A    between atoms: C8_8  and  C16_18 
REMARK    3  A    between atoms: C16_18  and  C17_20 
REMARK    4  A    between atoms: C18_21  and  C19_22 
REMARK    5  A    between atoms: C22_25  and  O3_28 
ROOT
HETATM    1  C1  UNL     1      45.859  -4.475 100.266  1.00  0.00     0.030 A 
HETATM    2  C2  UNL     1      46.217  -5.695  99.697  1.00  0.00     0.002 A 
HETATM    3  C3  UNL     1      46.707  -6.719 100.503  1.00  0.00     0.001 A 
HETATM    4  C4  UNL     1      46.838  -6.526 101.883  1.00  0.00     0.014 A 
HETATM    5  C5  UNL     1      46.478  -5.306 102.474  1.00  0.00     0.003 A 
HETATM    6  C6  UNL     1      45.991  -4.288 101.643  1.00  0.00     0.046 A 
HETATM    7  C7  UNL     1      46.606  -5.069 103.938  1.00  0.00     0.006 A 
HETATM    8  C8  UNL     1      46.253  -3.852 104.421  1.00  0.00     0.094 A 
HETATM    9  C9  UNL     1      45.726  -2.780 103.534  1.00  0.00     0.261 A 
HETATM   10  N1  UNL     1      45.630  -3.061 102.200  1.00  0.00    -0.322 N 
HETATM   11  O1  UNL     1      45.361  -1.692 103.968  1.00  0.00    -0.267 OA
HETATM   12  H5  UNL     1      45.276  -2.315 101.616  1.00  0.00     0.169 HD
ENDROOT
BRANCH   8  13
HETATM   13  C16 UNL     1      46.392  -3.538 105.866  1.00  0.00     0.188 C 
HETATM   14  O2  UNL     1      45.757  -4.154 106.718  1.00  0.00    -0.287 OA
BRANCH  13  15
HETATM   15  C17 UNL     1      47.307  -2.436 106.272  1.00  0.00     0.057 C 
HETATM   16  C18 UNL     1      48.570  -2.590 106.703  1.00  0.00     0.015 C 
BRANCH  16  17
HETATM   17  C19 UNL     1      49.431  -1.461 107.074  1.00  0.00    -0.036 A 
HETATM   18  C20 UNL     1      49.741  -1.165 108.407  1.00  0.00     0.014 A 
HETATM   19  C21 UNL     1      50.538  -0.060 108.731  1.00  0.00     0.037 A 
HETATM   20  C22 UNL     1      51.028   0.770 107.724  1.00  0.00     0.068 A 
HETATM   21  C23 UNL     1      50.709   0.486 106.395  1.00  0.00     0.037 A 
HETATM   22  C24 UNL     1      49.913  -0.615 106.070  1.00  0.00     0.014 A 
BRANCH  20  23
HETATM   23  O3  UNL     1      51.813   1.876 107.900  1.00  0.00    -0.356 OA
HETATM   24  C25 UNL     1      52.284   2.125 109.219  1.00  0.00     0.210 C 
ENDBRANCH  20  23
ENDBRANCH  16  17
ENDBRANCH  13  15
ENDBRANCH   8  13
BRANCH   7  25
HETATM   25  C10 UNL     1      47.070  -6.111 104.886  1.00  0.00    -0.024 A 
HETATM   26  C11 UNL     1      46.168  -7.074 105.363  1.00  0.00     0.012 A 
HETATM   27  C12 UNL     1      46.600  -8.060 106.252  1.00  0.00     0.001 A 
HETATM   28  C13 UNL     1      47.930  -8.091 106.669  1.00  0.00     0.000 A 
HETATM   29  C14 UNL     1      48.832  -7.137 106.197  1.00  0.00     0.001 A 
HETATM   30  C15 UNL     1      48.404  -6.150 105.307  1.00  0.00     0.012 A 
ENDBRANCH   7  25
TORSDOF 5
ENDMDL
