MODEL 1
REMARK VINA RESULT:      -6.8      0.000      0.000
REMARK  18 active torsions:
REMARK  status: ('A' for Active; 'I' for Inactive)
REMARK    1  A    between atoms: C1_1  and  C6_6 
REMARK    2  A    between atoms: C2_2  and  C3_3 
REMARK    3  A    between atoms: C4_4  and  C8_8 
REMARK    4  A    between atoms: C5_5  and  C7_7 
REMARK    5  A    between atoms: C7_7  and  C16_16 
REMARK    6  A    between atoms: C7_7  and  O1_21 
REMARK    7  A    between atoms: C9_9  and  C10_10 
REMARK    8  A    between atoms: C10_10  and  C11_11 
REMARK    9  A    between atoms: C10_10  and  O3_23 
REMARK   10  A    between atoms: C11_11  and  C12_12 
REMARK   11  A    between atoms: C11_11  and  O2_22 
REMARK   12  A    between atoms: C12_12  and  C13_13 
REMARK   13  A    between atoms: C14_14  and  C15_15 
REMARK   14  A    between atoms: C16_16  and  C17_17 
REMARK   15  A    between atoms: C18_18  and  C19_19 
REMARK   16  A    between atoms: C19_19  and  C20_20 
REMARK   17  A    between atoms: C20_20  and  C21_24 
REMARK   18  A    between atoms: C21_24  and  O5_27 
ROOT
HETATM    1  C1  UNL     1      51.813   0.463 109.765  1.00  0.00    -0.000 C 
HETATM    2  C2  UNL     1      52.342   1.684 109.592  1.00  0.00     0.000 C 
ENDROOT
BRANCH   2   3
HETATM    3  C3  UNL     1      51.944   2.687 108.626  1.00  0.00     0.000 C 
HETATM    4  C4  UNL     1      52.483   2.762 107.399  1.00  0.00    -0.000 C 
BRANCH   4   5
HETATM    5  C8  UNL     1      52.103   3.770 106.433  1.00  0.00    -0.001 C 
HETATM    6  C9  UNL     1      52.158   5.086 106.692  1.00  0.00     0.007 C 
BRANCH   6   7
HETATM    7  C10 UNL     1      51.773   6.154 105.696  1.00  0.00     0.170 C 
BRANCH   7   8
HETATM    8  C11 UNL     1      53.011   6.788 105.007  1.00  0.00     0.154 C 
BRANCH   8   9
HETATM    9  C12 UNL     1      52.847   6.937 103.479  1.00  0.00     0.061 C 
BRANCH   9  10
HETATM   10  C13 UNL     1      51.431   6.771 102.998  1.00  0.00    -0.028 C 
HETATM   11  C14 UNL     1      50.860   7.313 101.909  1.00  0.00    -0.031 C 
BRANCH  11  12
HETATM   12  C15 UNL     1      51.498   8.206 100.883  1.00  0.00     0.022 C 
HETATM   13  C22 UNL     1      51.517   7.548  99.510  1.00  0.00     0.009 C 
ENDBRANCH  11  12
ENDBRANCH   9  10
ENDBRANCH   8   9
BRANCH   8  14
HETATM   14  O2  UNL     1      54.199   6.039 105.295  1.00  0.00    -0.392 OA
HETATM   15  H30 UNL     1      54.221   5.873 106.253  1.00  0.00     0.210 HD
ENDBRANCH   8  14
ENDBRANCH   7   8
BRANCH   7  16
HETATM   16  O3  UNL     1      51.036   7.160 106.398  1.00  0.00    -0.389 OA
HETATM   17  H31 UNL     1      50.971   7.937 105.828  1.00  0.00     0.210 HD
ENDBRANCH   7  16
ENDBRANCH   6   7
ENDBRANCH   4   5
ENDBRANCH   2   3
BRANCH   1  18
HETATM   18  C6  UNL     1      50.745  -0.151 109.005  1.00  0.00    -0.002 C 
HETATM   19  C5  UNL     1      50.956  -0.788 107.842  1.00  0.00     0.005 C 
BRANCH  19  20
HETATM   20  C7  UNL     1      49.911  -1.439 106.968  1.00  0.00     0.144 C 
BRANCH  20  21
HETATM   21  C16 UNL     1      49.309  -0.418 105.989  1.00  0.00     0.062 C 
BRANCH  21  22
HETATM   22  C17 UNL     1      50.167   0.657 105.353  1.00  0.00    -0.028 C 
HETATM   23  C18 UNL     1      50.002   1.504 104.323  1.00  0.00    -0.030 C 
BRANCH  23  24
HETATM   24  C19 UNL     1      48.826   1.727 103.417  1.00  0.00     0.037 C 
BRANCH  24  25
HETATM   25  C20 UNL     1      47.706   2.481 104.130  1.00  0.00     0.113 C 
BRANCH  25  26
HETATM   26  C21 UNL     1      47.062   3.487 103.217  1.00  0.00     0.139 C 
HETATM   27  O4  UNL     1      47.160   4.700 103.256  1.00  0.00    -0.650 OA
BRANCH  26  28
HETATM   28  O5  UNL     1      46.291   2.896 102.284  1.00  0.00    -0.776 OA
HETATM   29  H32 UNL     1      45.646   2.378 102.809  1.00  0.00     0.167 HD
ENDBRANCH  26  28
ENDBRANCH  25  26
ENDBRANCH  24  25
ENDBRANCH  23  24
ENDBRANCH  21  22
ENDBRANCH  20  21
BRANCH  20  30
HETATM   30  O1  UNL     1      48.876  -1.988 107.781  1.00  0.00    -0.391 OA
HETATM   31  H29 UNL     1      49.312  -2.341 108.575  1.00  0.00     0.210 HD
ENDBRANCH  20  30
ENDBRANCH  19  20
ENDBRANCH   1  18
TORSDOF 18
ENDMDL
