MODEL 1
REMARK VINA RESULT:      -6.8      0.000      0.000
REMARK  2 active torsions:
REMARK  status: ('A' for Active; 'I' for Inactive)
REMARK    1  A    between atoms: C2_2  and  O1_22 
REMARK    2  A    between atoms: C21_21  and  C26_27 
ROOT
HETATM    1  C1  UNL     1      48.295   4.514  99.776  1.00  0.00     0.033 C 
HETATM    2  C2  UNL     1      48.105   3.245  98.954  1.00  0.00     0.126 C 
HETATM    3  C3  UNL     1      47.248   2.166  99.669  1.00  0.00    -0.017 C 
HETATM    4  C4  UNL     1      47.844   1.918 101.104  1.00  0.00     0.004 C 
HETATM    5  C5  UNL     1      48.090   3.192 101.997  1.00  0.00    -0.035 C 
HETATM    6  C6  UNL     1      48.902   4.221 101.145  1.00  0.00     0.012 C 
HETATM    7  C7  UNL     1      47.147   0.808 101.916  1.00  0.00     0.007 C 
HETATM    8  C8  UNL     1      48.031   0.343 103.080  1.00  0.00     0.011 C 
HETATM    9  C9  UNL     1      48.497   1.466 104.049  1.00  0.00    -0.032 C 
HETATM   10  C10 UNL     1      48.995   2.726 103.225  1.00  0.00     0.003 C 
HETATM   11  C11 UNL     1      49.726   0.970 104.994  1.00  0.00    -0.032 C 
HETATM   12  C12 UNL     1      50.140   2.160 105.955  1.00  0.00    -0.000 C 
HETATM   13  C13 UNL     1      50.487   3.441 105.182  1.00  0.00     0.006 C 
HETATM   14  C14 UNL     1      49.419   3.866 104.177  1.00  0.00     0.006 C 
HETATM   15  C15 UNL     1      49.359  -0.297 105.848  1.00  0.00     0.011 C 
HETATM   16  C16 UNL     1      50.368  -0.659 106.961  1.00  0.00     0.010 C 
HETATM   17  C17 UNL     1      50.727   0.555 107.839  1.00  0.00    -0.039 C 
HETATM   18  C18 UNL     1      51.241   1.701 106.936  1.00  0.00     0.006 C 
HETATM   19  C19 UNL     1      51.956   0.351 108.737  1.00  0.00     0.010 C 
HETATM   20  C20 UNL     1      52.451   1.777 109.047  1.00  0.00     0.010 C 
HETATM   21  C21 UNL     1      51.880   2.702 107.935  1.00  0.00     0.018 C 
HETATM   22  C22 UNL     1      46.793   3.900 102.466  1.00  0.00     0.016 C 
HETATM   23  C23 UNL     1      47.252   1.810 104.924  1.00  0.00     0.016 C 
HETATM   24  C24 UNL     1      49.519   0.920 108.740  1.00  0.00     0.015 C 
HETATM   25  C25 UNL     1      50.968   0.555 104.130  1.00  0.00     0.016 C 
HETATM   26  C29 UNL     1      47.356   0.866  98.826  1.00  0.00     0.018 C 
HETATM   27  C30 UNL     1      45.754   2.542  99.685  1.00  0.00     0.018 C 
ENDROOT
BRANCH  21  28
HETATM   28  C26 UNL     1      52.929   3.685 107.437  1.00  0.00    -0.089 C 
HETATM   29  C27 UNL     1      54.016   3.346 106.728  1.00  0.00     0.014 C 
HETATM   30  C28 UNL     1      52.636   5.137 107.704  1.00  0.00     0.043 C 
ENDBRANCH  21  28
BRANCH   2  31
HETATM   31  O1  UNL     1      47.535   3.633  97.702  1.00  0.00    -0.395 OA
HETATM   32  H27 UNL     1      47.596   4.599  97.643  1.00  0.00     0.210 HD
ENDBRANCH   2  31
TORSDOF 2
ENDMDL
