MODEL 1
REMARK VINA RESULT:      -8.9      0.000      0.000
REMARK  7 active torsions:
REMARK  status: ('A' for Active; 'I' for Inactive)
REMARK    1  A    between atoms: C1_1  and  O1_7 
REMARK    2  A    between atoms: C2_2  and  O3_11 
REMARK    3  A    between atoms: C4_4  and  N1_13 
REMARK    4  A    between atoms: C6_6  and  O2_9 
REMARK    5  A    between atoms: N1_13  and  C10_14 
REMARK    6  A    between atoms: C11_16  and  N4_20 
REMARK    7  A    between atoms: N4_20  and  C14_21 
ROOT
HETATM    1  C10 UNL     1      51.328   5.898 104.627  1.00  0.00     0.728 A 
HETATM    2  N2  UNL     1      50.227   5.530 103.949  1.00  0.00    -0.042 NA
HETATM    3  C11 UNL     1      50.093   5.911 102.663  1.00  0.00     0.188 A 
HETATM    4  C12 UNL     1      51.094   6.630 102.035  1.00  0.00     0.180 A 
HETATM    5  C13 UNL     1      52.187   6.964 102.789  1.00  0.00     0.182 A 
HETATM    6  N3  UNL     1      52.322   6.615 104.082  1.00  0.00    -0.072 NA
HETATM    7  F1  UNL     1      50.997   6.999 100.750  1.00  0.00    -0.200 F 
ENDROOT
BRANCH   3   8
HETATM    8  N4  UNL     1      48.987   5.490 101.878  1.00  0.00    -0.323 N 
HETATM    9  H14 UNL     1      48.129   5.898 102.239  1.00  0.00     0.169 HD
BRANCH   8  10
HETATM   10  C14 UNL     1      48.728   4.191 101.389  1.00  0.00     0.131 A 
HETATM   11  N5  UNL     1      47.592   3.533 101.691  1.00  0.00    -0.211 NA
HETATM   12  C15 UNL     1      47.422   2.294 101.193  1.00  0.00     0.166 A 
HETATM   13  C16 UNL     1      48.350   1.644 100.389  1.00  0.00     0.116 A 
HETATM   14  N6  UNL     1      46.260   1.636 101.560  1.00  0.00    -0.307 N 
HETATM   15  C17 UNL     1      49.524   2.315 100.088  1.00  0.00     0.044 A 
HETATM   16  O4  UNL     1      48.206   0.376  99.908  1.00  0.00    -0.327 OA
HETATM   17  C18 UNL     1      49.714   3.601 100.588  1.00  0.00     0.053 A 
HETATM   18  C20 UNL     1      46.878  -0.154  99.990  1.00  0.00     0.141 C 
HETATM   19  C19 UNL     1      45.977   0.371 101.137  1.00  0.00     0.258 C 
HETATM   20  C21 UNL     1      46.174   0.157  98.660  1.00  0.00     0.057 C 
HETATM   21  C22 UNL     1      47.029  -1.672 100.139  1.00  0.00     0.057 C 
HETATM   22  O5  UNL     1      45.016  -0.248 101.591  1.00  0.00    -0.270 OA
HETATM   23  H17 UNL     1      45.670   2.081 102.245  1.00  0.00     0.170 HD
ENDBRANCH   8  10
ENDBRANCH   3   8
BRANCH   1  24
HETATM   24  N1  UNL     1      51.358   5.472 105.951  1.00  0.00    -0.188 N 
HETATM   25  H12 UNL     1      51.276   6.287 106.544  1.00  0.00     0.184 HD
BRANCH  24  26
HETATM   26  C4  UNL     1      51.446   4.224 106.582  1.00  0.00     0.054 A 
HETATM   27  C3  UNL     1      52.139   4.146 107.805  1.00  0.00     0.069 A 
HETATM   28  C2  UNL     1      52.273   2.938 108.496  1.00  0.00     0.106 A 
HETATM   29  C1  UNL     1      51.685   1.785 107.956  1.00  0.00     0.135 A 
HETATM   30  C6  UNL     1      51.010   1.825 106.727  1.00  0.00     0.106 A 
HETATM   31  C5  UNL     1      50.893   3.048 106.059  1.00  0.00     0.069 A 
BRANCH  28  32
HETATM   32  O3  UNL     1      52.927   2.785 109.691  1.00  0.00    -0.353 OA
HETATM   33  C9  UNL     1      52.318   3.343 110.847  1.00  0.00     0.210 C 
ENDBRANCH  28  32
BRANCH  29  34
HETATM   34  O1  UNL     1      51.841   0.581 108.606  1.00  0.00    -0.351 OA
HETATM   35  C7  UNL     1      50.660   0.276 109.346  1.00  0.00     0.210 C 
ENDBRANCH  29  34
BRANCH  30  36
HETATM   36  O2  UNL     1      50.495   0.634 106.279  1.00  0.00    -0.353 OA
HETATM   37  C8  UNL     1      49.582   0.688 105.192  1.00  0.00     0.210 C 
ENDBRANCH  30  36
ENDBRANCH  24  26
ENDBRANCH   1  24
TORSDOF 7
ENDMDL
