MODEL 1
REMARK VINA RESULT:      -6.2      0.000      0.000
REMARK  6 active torsions:
REMARK  status: ('A' for Active; 'I' for Inactive)
REMARK    1  A    between atoms: C2_2  and  O4_23 
REMARK    2  A    between atoms: C3_3  and  C18_20 
REMARK    3  A    between atoms: C10_10  and  C12_12 
REMARK    4  A    between atoms: C12_12  and  C13_13 
REMARK    5  A    between atoms: C17_18  and  O5_25 
REMARK    6  A    between atoms: C18_20  and  O3_21 
ROOT
HETATM    1  C1  UNL     1      45.732  -3.861 106.085  1.00  0.00     0.033 C 
HETATM    2  C2  UNL     1      46.219  -5.143 106.763  1.00  0.00     0.128 C 
HETATM    3  C3  UNL     1      47.421  -5.856 106.085  1.00  0.00     0.008 C 
HETATM    4  C4  UNL     1      47.309  -5.898 104.493  1.00  0.00     0.007 C 
HETATM    5  C5  UNL     1      46.127  -5.079 103.823  1.00  0.00    -0.032 C 
HETATM    6  C6  UNL     1      46.024  -3.740 104.587  1.00  0.00     0.012 C 
HETATM    7  C7  UNL     1      47.466  -7.268 103.805  1.00  0.00     0.010 C 
HETATM    8  C8  UNL     1      47.759  -7.104 102.310  1.00  0.00     0.034 C 
HETATM    9  C9  UNL     1      46.737  -6.228 101.627  1.00  0.00    -0.084 C 
HETATM   10  C10 UNL     1      46.530  -4.851 102.290  1.00  0.00     0.025 C 
HETATM   11  C11 UNL     1      46.073  -6.707 100.561  1.00  0.00     0.015 C 
HETATM   12  C19 UNL     1      48.683  -5.001 106.442  1.00  0.00     0.020 C 
HETATM   13  C20 UNL     1      44.746  -5.786 103.841  1.00  0.00     0.016 C 
ENDROOT
BRANCH  10  14
HETATM   14  C12 UNL     1      45.574  -3.891 101.519  1.00  0.00     0.037 C 
BRANCH  14  15
HETATM   15  C13 UNL     1      46.285  -2.739 100.851  1.00  0.00    -0.010 C 
HETATM   16  C14 UNL     1      46.328  -1.475 101.306  1.00  0.00     0.044 C 
HETATM   17  C15 UNL     1      47.023  -0.403 100.560  1.00  0.00     0.291 C 
HETATM   18  C17 UNL     1      45.770  -0.879 102.543  1.00  0.00     0.181 C 
HETATM   19  O1  UNL     1      47.056   0.709 101.350  1.00  0.00    -0.315 OA
HETATM   20  O2  UNL     1      47.495  -0.486  99.436  1.00  0.00    -0.260 OA
HETATM   21  C16 UNL     1      46.612   0.374 102.668  1.00  0.00     0.215 C 
BRANCH  18  22
HETATM   22  O5  UNL     1      44.395  -0.582 102.325  1.00  0.00    -0.389 OA
HETATM   23  H30 UNL     1      44.341   0.281 101.885  1.00  0.00     0.210 HD
ENDBRANCH  18  22
ENDBRANCH  14  15
ENDBRANCH  10  14
BRANCH   3  24
HETATM   24  C18 UNL     1      47.582  -7.256 106.766  1.00  0.00     0.176 C 
BRANCH  24  25
HETATM   25  O3  UNL     1      47.270  -7.264 108.158  1.00  0.00    -0.400 OA
HETATM   26  H22 UNL     1      46.985  -6.381 108.427  1.00  0.00     0.209 HD
ENDBRANCH  24  25
ENDBRANCH   3  24
BRANCH   2  27
HETATM   27  O4  UNL     1      45.120  -6.045 106.910  1.00  0.00    -0.395 OA
HETATM   28  H26 UNL     1      44.376  -5.557 107.324  1.00  0.00     0.210 HD
ENDBRANCH   2  27
TORSDOF 6
ENDMDL
