MODEL 1
REMARK VINA RESULT:      -8.5      0.000      0.000
REMARK  8 active torsions:
REMARK  status: ('A' for Active; 'I' for Inactive)
REMARK    1  A    between atoms: C1_1  and  C2_2 
REMARK    2  A    between atoms: C1_1  and  C3_4 
REMARK    3  A    between atoms: N1_6  and  C11_13 
REMARK    4  A    between atoms: C11_13  and  C12_14 
REMARK    5  A    between atoms: C12_14  and  C13_15 
REMARK    6  A    between atoms: C13_15  and  C14_16 
REMARK    7  A    between atoms: C14_16  and  C15_17 
REMARK    8  A    between atoms: C15_17  and  O2_24 
ROOT
HETATM    1  C2  UNL     1      50.275   1.994 105.939  1.00  0.00     0.038 A 
HETATM    2  C4  UNL     1      50.816   3.243 105.684  1.00  0.00     0.107 A 
HETATM    3  N1  UNL     1      51.607   3.609 106.734  1.00  0.00    -0.355 N 
HETATM    4  C5  UNL     1      51.624   2.613 107.684  1.00  0.00     0.045 A 
HETATM    5  C6  UNL     1      50.813   1.574 107.204  1.00  0.00     0.006 A 
HETATM    6  C7  UNL     1      52.296   2.533 108.915  1.00  0.00     0.030 A 
HETATM    7  C8  UNL     1      52.154   1.371 109.676  1.00  0.00     0.002 A 
HETATM    8  C9  UNL     1      51.375   0.317 109.220  1.00  0.00     0.001 A 
HETATM    9  C10 UNL     1      50.709   0.405 107.993  1.00  0.00     0.014 A 
ENDROOT
BRANCH   1  10
HETATM   10  C1  UNL     1      49.359   1.340 105.008  1.00  0.00     0.167 C 
HETATM   11  O1  UNL     1      48.879   0.230 105.226  1.00  0.00    -0.292 OA
BRANCH  10  12
HETATM   12  C3  UNL     1      48.994   2.075 103.763  1.00  0.00     0.077 A 
HETATM   13  C16 UNL     1      47.819   1.686 102.863  1.00  0.00    -0.029 A 
HETATM   14  C17 UNL     1      47.753   2.972 103.698  1.00  0.00    -0.029 A 
HETATM   15  C18 UNL     1      47.997   1.804 101.364  1.00  0.00     0.016 C 
HETATM   16  C21 UNL     1      46.932   0.514 103.232  1.00  0.00     0.016 C 
HETATM   17  C19 UNL     1      47.914   4.319 103.021  1.00  0.00     0.016 C 
HETATM   18  C20 UNL     1      46.786   3.048 104.862  1.00  0.00     0.016 C 
ENDBRANCH  10  12
ENDBRANCH   1  10
BRANCH   3  19
HETATM   19  C11 UNL     1      52.314   4.880 106.817  1.00  0.00     0.128 C 
BRANCH  19  20
HETATM   20  C12 UNL     1      53.755   4.769 106.319  1.00  0.00     0.021 C 
BRANCH  20  21
HETATM   21  C13 UNL     1      54.100   5.789 105.228  1.00  0.00     0.012 C 
BRANCH  21  22
HETATM   22  C14 UNL     1      53.050   6.880 105.013  1.00  0.00     0.110 C 
BRANCH  22  23
HETATM   23  C15 UNL     1      52.187   6.630 103.805  1.00  0.00     0.139 C 
HETATM   24  O3  UNL     1      52.558   6.394 102.669  1.00  0.00    -0.650 OA
BRANCH  23  25
HETATM   25  O2  UNL     1      50.875   6.724 104.094  1.00  0.00    -0.776 OA
HETATM   26  H27 UNL     1      50.715   7.688 104.167  1.00  0.00     0.167 HD
ENDBRANCH  23  25
ENDBRANCH  22  23
ENDBRANCH  21  22
ENDBRANCH  20  21
ENDBRANCH  19  20
ENDBRANCH   3  19
TORSDOF 8
ENDMDL
