MODEL 1
REMARK VINA RESULT:      -7.4      0.000      0.000
REMARK  13 active torsions:
REMARK  status: ('A' for Active; 'I' for Inactive)
REMARK    1  A    between atoms: C1_1  and  O1_7 
REMARK    2  A    between atoms: C3_3  and  O2_13 
REMARK    3  A    between atoms: C4_4  and  C14_18 
REMARK    4  A    between atoms: O1_7  and  C7_8 
REMARK    5  A    between atoms: C7_8  and  C8_9 
REMARK    6  A    between atoms: O2_13  and  C12_14 
REMARK    7  A    between atoms: C12_14  and  C13_15 
REMARK    8  A    between atoms: C13_15  and  O4_17 
REMARK    9  A    between atoms: C14_18  and  C15_20 
REMARK   10  A    between atoms: C16_21  and  C17_22 
REMARK   11  A    between atoms: C20_25  and  O6_28 
REMARK   12  A    between atoms: O6_28  and  C23_29 
REMARK   13  A    between atoms: C23_29  and  C24_30 
ROOT
HETATM    1  C1  UNL     1      46.462  -5.139 101.857  1.00  0.00     0.071 A 
HETATM    2  C2  UNL     1      45.944  -3.872 102.126  1.00  0.00     0.074 A 
HETATM    3  C3  UNL     1      45.965  -3.372 103.432  1.00  0.00     0.086 A 
HETATM    4  C4  UNL     1      46.454  -4.155 104.480  1.00  0.00     0.047 A 
HETATM    5  C5  UNL     1      46.969  -5.427 104.219  1.00  0.00     0.021 A 
HETATM    6  C6  UNL     1      46.969  -5.912 102.909  1.00  0.00     0.038 A 
ENDROOT
BRANCH   4   7
HETATM    7  C14 UNL     1      46.475  -3.635 105.857  1.00  0.00     0.184 C 
HETATM    8  O5  UNL     1      45.741  -4.132 106.706  1.00  0.00    -0.287 OA
BRANCH   7   9
HETATM    9  C15 UNL     1      47.363  -2.494 106.205  1.00  0.00     0.056 C 
HETATM   10  C16 UNL     1      48.592  -2.604 106.731  1.00  0.00     0.015 C 
BRANCH  10  11
HETATM   11  C17 UNL     1      49.419  -1.440 107.071  1.00  0.00    -0.036 A 
HETATM   12  C18 UNL     1      49.862  -0.595 106.046  1.00  0.00     0.014 A 
HETATM   13  C19 UNL     1      50.673   0.512 106.330  1.00  0.00     0.037 A 
HETATM   14  C20 UNL     1      51.054   0.786 107.642  1.00  0.00     0.069 A 
HETATM   15  C21 UNL     1      50.639  -0.074 108.662  1.00  0.00     0.037 A 
HETATM   16  C22 UNL     1      49.828  -1.177 108.383  1.00  0.00     0.014 A 
BRANCH  14  17
HETATM   17  O6  UNL     1      51.852   1.814 108.053  1.00  0.00    -0.347 OA
BRANCH  17  18
HETATM   18  C23 UNL     1      51.657   3.106 107.468  1.00  0.00     0.203 C 
BRANCH  18  19
HETATM   19  C24 UNL     1      52.968   3.630 106.950  1.00  0.00     0.001 C 
HETATM   20  C25 UNL     1      53.191   4.786 106.296  1.00  0.00    -0.089 C 
HETATM   21  C26 UNL     1      52.127   5.777 105.915  1.00  0.00     0.042 C 
HETATM   22  C27 UNL     1      54.585   5.180 105.883  1.00  0.00     0.042 C 
ENDBRANCH  18  19
ENDBRANCH  17  18
ENDBRANCH  14  17
ENDBRANCH  10  11
ENDBRANCH   7   9
ENDBRANCH   4   7
BRANCH   3  23
HETATM   23  O2  UNL     1      45.423  -2.135 103.666  1.00  0.00    -0.340 OA
BRANCH  23  24
HETATM   24  C12 UNL     1      45.378  -1.357 102.467  1.00  0.00     0.285 C 
BRANCH  24  25
HETATM   25  C13 UNL     1      46.301  -0.151 102.481  1.00  0.00     0.164 C 
HETATM   26  O3  UNL     1      46.915   0.295 101.522  1.00  0.00    -0.648 OA
BRANCH  25  27
HETATM   27  O4  UNL     1      46.453   0.418 103.696  1.00  0.00    -0.775 OA
HETATM   28  H15 UNL     1      45.593   0.856 103.865  1.00  0.00     0.167 HD
ENDBRANCH  25  27
ENDBRANCH  24  25
ENDBRANCH  23  24
ENDBRANCH   3  23
BRANCH   1  29
HETATM   29  O1  UNL     1      46.534  -5.744 100.634  1.00  0.00    -0.347 OA
BRANCH  29  30
HETATM   30  C7  UNL     1      47.016  -5.008  99.506  1.00  0.00     0.203 C 
BRANCH  30  31
HETATM   31  C8  UNL     1      45.868  -4.354  98.784  1.00  0.00     0.001 C 
HETATM   32  C9  UNL     1      45.697  -3.052  98.480  1.00  0.00    -0.089 C 
HETATM   33  C10 UNL     1      46.645  -1.938  98.824  1.00  0.00     0.042 C 
HETATM   34  C11 UNL     1      44.456  -2.596  97.749  1.00  0.00     0.042 C 
ENDBRANCH  30  31
ENDBRANCH  29  30
ENDBRANCH   1  29
TORSDOF 13
ENDMDL
