MODEL 1
REMARK VINA RESULT:      -8.0      0.000      0.000
REMARK  6 active torsions:
REMARK  status: ('A' for Active; 'I' for Inactive)
REMARK    1  A    between atoms: N1_5  and  C6_7 
REMARK    2  A    between atoms: C6_7  and  C7_8 
REMARK    3  A    between atoms: C7_8  and  O1_9 
REMARK    4  A    between atoms: O1_9  and  C8_10 
REMARK    5  A    between atoms: C11_13  and  C14_16 
REMARK    6  A    between atoms: C18_22  and  C20_25 
ROOT
HETATM    1  C8  UNL     1      51.856   5.759 105.552  1.00  0.00     0.068 A 
HETATM    2  C9  UNL     1      52.873   6.484 104.939  1.00  0.00     0.037 A 
HETATM    3  C10 UNL     1      52.706   6.972 103.634  1.00  0.00     0.015 A 
HETATM    4  C11 UNL     1      51.519   6.744 102.929  1.00  0.00    -0.023 A 
HETATM    5  C12 UNL     1      50.500   6.015 103.551  1.00  0.00     0.015 A 
HETATM    6  C13 UNL     1      50.670   5.529 104.851  1.00  0.00     0.037 A 
ENDROOT
BRANCH   4   7
HETATM    7  C14 UNL     1      51.357   7.251 101.562  1.00  0.00     0.009 A 
HETATM    8  C15 UNL     1      51.863   8.596 101.137  1.00  0.00     0.132 A 
HETATM    9  N2  UNL     1      51.748   9.133  99.958  1.00  0.00    -0.240 NA
HETATM   10  C16 UNL     1      51.096   8.383  99.013  1.00  0.00     0.162 A 
HETATM   11  N3  UNL     1      50.588   7.111  99.317  1.00  0.00    -0.225 N 
HETATM   12  C18 UNL     1      50.776   8.616  97.686  1.00  0.00     0.041 A 
HETATM   13  C17 UNL     1      50.730   6.569 100.589  1.00  0.00     0.134 A 
HETATM   14  N4  UNL     1      49.975   6.542  98.252  1.00  0.00    -0.178 NA
HETATM   15  C19 UNL     1      50.091   7.449  97.282  1.00  0.00     0.155 A 
BRANCH  12  16
HETATM   16  C20 UNL     1      51.085   9.819  96.928  1.00  0.00    -0.018 A 
HETATM   17  C21 UNL     1      52.143   9.821  96.015  1.00  0.00     0.031 A 
HETATM   18  C22 UNL     1      52.418  10.987  95.316  1.00  0.00     0.117 A 
HETATM   19  N5  UNL     1      51.727  12.134  95.467  1.00  0.00    -0.273 NA
HETATM   20  C23 UNL     1      50.708  12.113  96.353  1.00  0.00     0.117 A 
HETATM   21  C24 UNL     1      50.355  10.997  97.097  1.00  0.00     0.031 A 
ENDBRANCH  12  16
ENDBRANCH   4   7
BRANCH   1  22
HETATM   22  O1  UNL     1      51.876   5.226 106.808  1.00  0.00    -0.349 OA
BRANCH  22  23
HETATM   23  C7  UNL     1      52.984   4.420 107.212  1.00  0.00     0.206 C 
BRANCH  23  24
HETATM   24  C6  UNL     1      52.737   2.911 106.994  1.00  0.00     0.299 C 
BRANCH  24  25
HETATM   25  N1  UNL     1      51.584   2.338 107.716  1.00  0.00     0.090 N 
HETATM   26  C4  UNL     1      51.984   1.370 108.749  1.00  0.00     0.272 C 
HETATM   27  C3  UNL     1      50.832   0.458 109.168  1.00  0.00     0.030 C 
HETATM   28  C2  UNL     1      50.329  -0.377 107.991  1.00  0.00     0.003 C 
HETATM   29  C1  UNL     1      50.557   0.314 106.649  1.00  0.00     0.030 C 
HETATM   30  C5  UNL     1      50.554   1.834 106.796  1.00  0.00     0.272 C 
ENDBRANCH  24  25
ENDBRANCH  23  24
ENDBRANCH  22  23
ENDBRANCH   1  22
TORSDOF 6
ENDMDL
