MODEL 1
REMARK VINA RESULT:      -8.4      0.000      0.000
REMARK  7 active torsions:
REMARK  status: ('A' for Active; 'I' for Inactive)
REMARK    1  A    between atoms: C9_9  and  C20_22 
REMARK    2  A    between atoms: C10_10  and  C11_11 
REMARK    3  A    between atoms: C14_14  and  O1_19 
REMARK    4  A    between atoms: C16_16  and  O2_20 
REMARK    5  A    between atoms: C20_22  and  C21_23 
REMARK    6  A    between atoms: C22_24  and  C23_25 
REMARK    7  A    between atoms: C23_25  and  C24_26 
ROOT
HETATM    1  C1  UNL     1      48.481   3.258  99.902  1.00  0.00     0.005 C 
HETATM    2  C2  UNL     1      47.071   2.670  99.927  1.00  0.00     0.034 C 
HETATM    3  C3  UNL     1      46.892   1.610 101.012  1.00  0.00    -0.075 C 
HETATM    4  C4  UNL     1      47.943   1.691 102.108  1.00  0.00     0.023 C 
HETATM    5  C5  UNL     1      48.304   3.165 102.481  1.00  0.00    -0.032 C 
HETATM    6  C6  UNL     1      48.909   3.874 101.243  1.00  0.00     0.010 C 
HETATM    7  C7  UNL     1      47.744   1.025 103.472  1.00  0.00     0.010 C 
HETATM    8  C8  UNL     1      48.675   1.767 104.435  1.00  0.00     0.007 C 
HETATM    9  C9  UNL     1      49.327   2.923 103.636  1.00  0.00     0.002 C 
HETATM   10  C10 UNL     1      45.866   0.747 100.866  1.00  0.00     0.004 C 
HETATM   11  C19 UNL     1      47.075   3.963 102.989  1.00  0.00     0.016 C 
ENDROOT
BRANCH  10  12
HETATM   12  C11 UNL     1      45.540  -0.415 101.662  1.00  0.00     0.008 C 
HETATM   13  C12 UNL     1      45.996  -1.673 101.479  1.00  0.00    -0.048 C 
HETATM   14  C13 UNL     1      46.863  -2.138 100.326  1.00  0.00     0.071 C 
HETATM   15  C17 UNL     1      45.634  -2.747 102.411  1.00  0.00    -0.033 C 
HETATM   16  C14 UNL     1      46.338  -3.417  99.656  1.00  0.00     0.125 C 
HETATM   17  C15 UNL     1      46.087  -4.520 100.681  1.00  0.00     0.068 C 
HETATM   18  C16 UNL     1      45.148  -4.038 101.780  1.00  0.00     0.153 C 
HETATM   19  C18 UNL     1      45.771  -2.618 103.743  1.00  0.00     0.022 C 
BRANCH  16  20
HETATM   20  O1  UNL     1      47.303  -3.889  98.711  1.00  0.00    -0.395 OA
HETATM   21  H23 UNL     1      47.593  -4.768  99.012  1.00  0.00     0.210 HD
ENDBRANCH  16  20
BRANCH  18  22
HETATM   22  O2  UNL     1      43.850  -3.825 101.225  1.00  0.00    -0.391 OA
HETATM   23  H24 UNL     1      43.626  -4.622 100.716  1.00  0.00     0.210 HD
ENDBRANCH  18  22
ENDBRANCH  10  12
BRANCH   9  24
HETATM   24  C20 UNL     1      49.738   4.113 104.550  1.00  0.00     0.008 C 
HETATM   25  C28 UNL     1      50.094   5.381 103.765  1.00  0.00     0.014 C 
BRANCH  24  26
HETATM   26  C21 UNL     1      50.849   3.685 105.499  1.00  0.00    -0.026 C 
HETATM   27  C22 UNL     1      50.725   3.203 106.746  1.00  0.00    -0.026 C 
BRANCH  27  28
HETATM   28  C23 UNL     1      51.903   2.798 107.610  1.00  0.00     0.007 C 
HETATM   29  C27 UNL     1      53.201   3.073 106.846  1.00  0.00     0.014 C 
BRANCH  28  30
HETATM   30  C24 UNL     1      51.761   1.333 108.111  1.00  0.00    -0.015 C 
HETATM   31  C25 UNL     1      51.986   1.160 109.617  1.00  0.00     0.010 C 
HETATM   32  C26 UNL     1      50.399   0.744 107.731  1.00  0.00     0.010 C 
ENDBRANCH  28  30
ENDBRANCH  27  28
ENDBRANCH  24  26
ENDBRANCH   9  24
TORSDOF 7
ENDMDL
