MODEL 1
REMARK VINA RESULT:      -6.8      0.000      0.000
REMARK  13 active torsions:
REMARK  status: ('A' for Active; 'I' for Inactive)
REMARK    1  A    between atoms: C3_3  and  C6_8 
REMARK    2  A    between atoms: C4_4  and  O2_7 
REMARK    3  A    between atoms: C6_8  and  C7_9 
REMARK    4  A    between atoms: C8_10  and  C9_11 
REMARK    5  A    between atoms: C9_11  and  C10_12 
REMARK    6  A    between atoms: C10_12  and  C11_13 
REMARK    7  A    between atoms: C11_13  and  C12_14 
REMARK    8  A    between atoms: C12_14  and  O3_23 
REMARK    9  A    between atoms: C13_15  and  C14_16 
REMARK   10  A    between atoms: C15_17  and  C16_18 
REMARK   11  A    between atoms: C16_18  and  C17_19 
REMARK   12  A    between atoms: C17_19  and  C18_20 
REMARK   13  A    between atoms: C18_20  and  C19_21 
ROOT
HETATM    1  C1  UNL     1      51.733   1.199 109.092  1.00  0.00     0.158 C 
HETATM    2  C2  UNL     1      51.678   2.078 107.872  1.00  0.00    -0.005 C 
HETATM    3  C3  UNL     1      50.418   1.674 107.134  1.00  0.00     0.055 C 
HETATM    4  C4  UNL     1      50.264   0.197 107.568  1.00  0.00     0.134 C 
HETATM    5  C5  UNL     1      50.686   0.127 109.030  1.00  0.00     0.116 C 
HETATM    6  O1  UNL     1      52.514   1.346 110.019  1.00  0.00    -0.293 OA
HETATM    7  C13 UNL     1      52.692   2.935 107.676  1.00  0.00     0.011 C 
ENDROOT
BRANCH   3   8
HETATM    8  C6  UNL     1      50.348   1.817 105.603  1.00  0.00     0.038 C 
BRANCH   8   9
HETATM    9  C7  UNL     1      49.304   2.824 105.181  1.00  0.00    -0.030 C 
HETATM   10  C8  UNL     1      48.168   2.575 104.509  1.00  0.00    -0.031 C 
BRANCH  10  11
HETATM   11  C9  UNL     1      47.656   1.238 104.055  1.00  0.00     0.027 C 
BRANCH  11  12
HETATM   12  C10 UNL     1      47.454   1.124 102.541  1.00  0.00     0.014 C 
BRANCH  12  13
HETATM   13  C11 UNL     1      48.002   2.306 101.743  1.00  0.00     0.110 C 
BRANCH  13  14
HETATM   14  C12 UNL     1      49.296   2.005 101.041  1.00  0.00     0.139 C 
HETATM   15  O4  UNL     1      49.419   1.437  99.969  1.00  0.00    -0.650 OA
BRANCH  14  16
HETATM   16  O3  UNL     1      50.380   2.395 101.741  1.00  0.00    -0.776 OA
HETATM   17  H30 UNL     1      50.057   2.452 102.664  1.00  0.00     0.167 HD
ENDBRANCH  14  16
ENDBRANCH  13  14
ENDBRANCH  12  13
ENDBRANCH  11  12
ENDBRANCH  10  11
ENDBRANCH   8   9
ENDBRANCH   3   8
BRANCH   4  18
HETATM   18  O2  UNL     1      51.058  -0.693 106.779  1.00  0.00    -0.394 OA
HETATM   19  H5  UNL     1      50.907  -0.514 105.833  1.00  0.00     0.210 HD
ENDBRANCH   4  18
BRANCH   7  20
HETATM   20  C14 UNL     1      52.881   3.863 106.587  1.00  0.00    -0.003 C 
HETATM   21  C15 UNL     1      54.018   4.557 106.420  1.00  0.00    -0.027 C 
BRANCH  21  22
HETATM   22  C16 UNL     1      54.239   5.537 105.299  1.00  0.00     0.027 C 
BRANCH  22  23
HETATM   23  C17 UNL     1      53.199   6.662 105.263  1.00  0.00     0.004 C 
BRANCH  23  24
HETATM   24  C18 UNL     1      52.266   6.648 104.044  1.00  0.00    -0.000 C 
BRANCH  24  25
HETATM   25  C19 UNL     1      50.882   6.063 104.313  1.00  0.00    -0.005 C 
HETATM   26  C20 UNL     1      50.147   5.760 103.015  1.00  0.00     0.005 C 
ENDBRANCH  24  25
ENDBRANCH  23  24
ENDBRANCH  22  23
ENDBRANCH  21  22
ENDBRANCH   7  20
TORSDOF 13
ENDMDL
