MODEL 1
REMARK VINA RESULT:      -8.0      0.000      0.000
REMARK  7 active torsions:
REMARK  status: ('A' for Active; 'I' for Inactive)
REMARK    1  A    between atoms: C4_4  and  C13_17 
REMARK    2  A    between atoms: C6_6  and  N1_7 
REMARK    3  A    between atoms: N1_7  and  S1_8 
REMARK    4  A    between atoms: S1_8  and  C7_9 
REMARK    5  A    between atoms: C14_18  and  C15_19 
REMARK    6  A    between atoms: C16_20  and  C17_21 
REMARK       I    between atoms: C17_21  and  N2_22 
REMARK    7  A    between atoms: N2_22  and  O4_24 
ROOT
HETATM    1  C1  UNL     1      47.950   2.026 103.308  1.00  0.00     0.030 A 
HETATM    2  C2  UNL     1      47.770   2.563 102.032  1.00  0.00     0.004 A 
HETATM    3  C3  UNL     1      48.415   3.749 101.679  1.00  0.00     0.021 A 
HETATM    4  C4  UNL     1      49.243   4.398 102.601  1.00  0.00     0.020 A 
HETATM    5  C5  UNL     1      49.420   3.863 103.879  1.00  0.00     0.050 A 
HETATM    6  C6  UNL     1      48.767   2.681 104.229  1.00  0.00     0.044 A 
ENDROOT
BRANCH   6   7
HETATM    7  N1  UNL     1      48.977   2.105 105.513  1.00  0.00    -0.281 N 
HETATM    8  H5  UNL     1      49.023   2.737 106.311  1.00  0.00     0.179 HD
BRANCH   7   9
HETATM    9  S1  UNL     1      50.160   0.901 105.650  1.00  0.00     0.263 S 
HETATM   10  O1  UNL     1      51.094   1.137 104.569  1.00  0.00    -0.200 OA
HETATM   11  O2  UNL     1      49.521  -0.388 105.810  1.00  0.00    -0.200 OA
BRANCH   9  12
HETATM   12  C7  UNL     1      50.980   1.329 107.164  1.00  0.00     0.079 A 
HETATM   13  C8  UNL     1      51.642   2.558 107.263  1.00  0.00     0.025 A 
HETATM   14  C9  UNL     1      52.301   2.887 108.448  1.00  0.00     0.002 A 
HETATM   15  C10 UNL     1      52.302   1.991 109.519  1.00  0.00     0.000 A 
HETATM   16  C11 UNL     1      51.650   0.761 109.411  1.00  0.00     0.002 A 
HETATM   17  C12 UNL     1      50.991   0.423 108.230  1.00  0.00     0.025 A 
ENDBRANCH   9  12
ENDBRANCH   7   9
ENDBRANCH   6   7
BRANCH   4  18
HETATM   18  C13 UNL     1      49.919   5.602 102.229  1.00  0.00    -0.062 C 
HETATM   19  C14 UNL     1      50.493   6.613 101.926  1.00  0.00    -0.073 C 
BRANCH  19  20
HETATM   20  C15 UNL     1      51.175   7.808 101.573  1.00  0.00     0.070 C 
HETATM   21  C16 UNL     1      52.200   7.788 100.711  1.00  0.00     0.085 C 
BRANCH  21  22
HETATM   22  C17 UNL     1      52.888   9.052 100.365  1.00  0.00     0.265 C 
HETATM   23  N2  UNL     1      52.910   9.310  99.019  1.00  0.00    -0.234 N 
HETATM   24  H13 UNL     1      52.599   8.679  98.290  1.00  0.00     0.197 HD
HETATM   25  O3  UNL     1      53.404   9.794 101.193  1.00  0.00    -0.266 OA
BRANCH  23  26
HETATM   26  O4  UNL     1      53.632  10.454  98.610  1.00  0.00    -0.287 OA
HETATM   27  H14 UNL     1      54.124  10.695  99.426  1.00  0.00     0.244 HD
ENDBRANCH  23  26
ENDBRANCH  21  22
ENDBRANCH  19  20
ENDBRANCH   4  18
TORSDOF 7
ENDMDL
