MODEL 1
REMARK VINA RESULT:      -9.1      0.000      0.000
REMARK  4 active torsions:
REMARK  status: ('A' for Active; 'I' for Inactive)
REMARK    1  A    between atoms: C7_9  and  C9_11 
REMARK    2  A    between atoms: C10_12  and  C11_13 
REMARK    3  A    between atoms: C16_20  and  C17_22 
REMARK    4  A    between atoms: C20_25  and  C23_28 
REMARK       I    between atoms: C23_28  and  N4_29 
ROOT
HETATM    1  C9  UNL     1      49.184   2.398 102.874  1.00  0.00     0.098 A 
HETATM    2  C10 UNL     1      48.258   1.455 103.284  1.00  0.00     0.092 A 
HETATM    3  N2  UNL     1      48.613   1.213 104.594  1.00  0.00    -0.336 N 
HETATM    4  C16 UNL     1      49.745   1.921 104.908  1.00  0.00     0.139 A 
HETATM    5  N3  UNL     1      50.113   2.640 103.864  1.00  0.00    -0.227 NA
HETATM    6  H12 UNL     1      48.105   0.580 105.195  1.00  0.00     0.168 HD
ENDROOT
BRANCH   4   7
HETATM    7  C17 UNL     1      50.430   1.877 106.204  1.00  0.00     0.010 A 
HETATM    8  C18 UNL     1      51.271   2.942 106.567  1.00  0.00     0.016 A 
HETATM    9  C19 UNL     1      51.948   2.950 107.791  1.00  0.00     0.018 A 
HETATM   10  C20 UNL     1      51.786   1.887 108.684  1.00  0.00     0.031 A 
HETATM   11  C21 UNL     1      50.962   0.813 108.329  1.00  0.00     0.018 A 
HETATM   12  C22 UNL     1      50.288   0.810 107.102  1.00  0.00     0.016 A 
BRANCH  10  13
HETATM   13  C23 UNL     1      52.479   1.840 110.001  1.00  0.00     0.249 C 
HETATM   14  N4  UNL     1      52.747   3.029 110.618  1.00  0.00    -0.366 N 
HETATM   15  H17 UNL     1      52.285   3.888 110.357  1.00  0.00     0.159 HD
HETATM   16  H18 UNL     1      53.100   2.962 111.564  1.00  0.00     0.159 HD
HETATM   17  O3  UNL     1      52.769   0.777 110.536  1.00  0.00    -0.268 OA
ENDBRANCH  10  13
ENDBRANCH   4   7
BRANCH   2  18
HETATM   18  C11 UNL     1      47.134   0.756 102.683  1.00  0.00     0.085 A 
HETATM   19  C12 UNL     1      46.670   1.000 101.398  1.00  0.00     0.034 A 
HETATM   20  C13 UNL     1      45.594   0.253 100.922  1.00  0.00     0.004 A 
HETATM   21  C14 UNL     1      45.024  -0.717 101.737  1.00  0.00     0.019 A 
HETATM   22  C15 UNL     1      45.561  -0.909 102.998  1.00  0.00     0.117 A 
HETATM   23  N1  UNL     1      46.605  -0.203 103.487  1.00  0.00    -0.259 NA
ENDBRANCH   2  18
BRANCH   1  24
HETATM   24  C7  UNL     1      49.244   3.085 101.600  1.00  0.00    -0.002 A 
HETATM   25  C6  UNL     1      49.031   4.469 101.513  1.00  0.00     0.017 A 
HETATM   26  C5  UNL     1      49.104   5.118 100.279  1.00  0.00     0.040 A 
HETATM   27  C3  UNL     1      49.405   4.390  99.130  1.00  0.00     0.102 A 
HETATM   28  O1  UNL     1      49.481   5.095  97.956  1.00  0.00    -0.346 OA
HETATM   29  C4  UNL     1      49.611   3.008  99.209  1.00  0.00     0.103 A 
HETATM   30  C2  UNL     1      50.140   4.335  96.937  1.00  0.00     0.202 C 
HETATM   31  C1  UNL     1      49.598   2.917  96.893  1.00  0.00     0.202 C 
HETATM   32  O2  UNL     1      49.884   2.227  98.114  1.00  0.00    -0.346 OA
HETATM   33  C8  UNL     1      49.551   2.361 100.442  1.00  0.00     0.053 A 
ENDBRANCH   1  24
TORSDOF 4
ENDMDL
