MODEL 1
REMARK VINA RESULT:      -9.2      0.000      0.000
REMARK  7 active torsions:
REMARK  status: ('A' for Active; 'I' for Inactive)
REMARK    1  A    between atoms: C1_1  and  N2_9 
REMARK    2  A    between atoms: C2_2  and  N1_8 
REMARK       I    between atoms: N2_9  and  C7_10 
REMARK    3  A    between atoms: C7_10  and  C8_11 
REMARK    4  A    between atoms: C11_15  and  C14_18 
REMARK    5  A    between atoms: C14_18  and  N3_19 
REMARK       I    between atoms: N3_19  and  C15_20 
REMARK    6  A    between atoms: C15_20  and  C16_21 
REMARK    7  A    between atoms: C17_23  and  C18_24 
ROOT
HETATM    1  C8  UNL     1      51.347   7.628 100.689  1.00  0.00     0.032 A 
HETATM    2  C9  UNL     1      51.205   7.491 102.075  1.00  0.00     0.017 A 
HETATM    3  C10 UNL     1      50.485   6.415 102.601  1.00  0.00     0.010 A 
HETATM    4  C11 UNL     1      49.892   5.466 101.753  1.00  0.00    -0.040 A 
HETATM    5  C12 UNL     1      50.018   5.623 100.366  1.00  0.00     0.010 A 
HETATM    6  C13 UNL     1      50.739   6.696  99.838  1.00  0.00     0.017 A 
ENDROOT
BRANCH   1   7
HETATM    7  C7  UNL     1      52.103   8.759 100.079  1.00  0.00     0.256 C 
HETATM    8  N2  UNL     1      51.337   9.839  99.702  1.00  0.00    -0.321 N 
HETATM    9  H6  UNL     1      50.347   9.852  99.932  1.00  0.00     0.169 HD
HETATM   10  O1  UNL     1      53.323   8.666  99.989  1.00  0.00    -0.267 OA
BRANCH   8  11
HETATM   11  C1  UNL     1      51.753  11.019  99.051  1.00  0.00     0.056 A 
HETATM   12  C2  UNL     1      52.565  11.891  99.814  1.00  0.00     0.035 A 
HETATM   13  C3  UNL     1      53.057  13.060  99.231  1.00  0.00     0.067 A 
HETATM   14  C4  UNL     1      52.681  13.391  97.933  1.00  0.00     0.118 A 
HETATM   15  C5  UNL     1      51.851  12.559  97.191  1.00  0.00     0.044 A 
HETATM   16  F1  UNL     1      53.142  14.523  97.386  1.00  0.00    -0.206 F 
HETATM   17  C6  UNL     1      51.387  11.367  97.749  1.00  0.00     0.034 A 
BRANCH  12  18
HETATM   18  N1  UNL     1      53.054  11.462 101.078  1.00  0.00    -0.301 NA
HETATM   19  H4  UNL     1      53.845  10.829 100.971  1.00  0.00     0.124 HD
HETATM   20  H5  UNL     1      52.310  10.965 101.570  1.00  0.00     0.124 HD
ENDBRANCH  12  18
ENDBRANCH   8  11
ENDBRANCH   1   7
BRANCH   4  21
HETATM   21  C14 UNL     1      49.093   4.327 102.332  1.00  0.00     0.161 C 
BRANCH  21  22
HETATM   22  N3  UNL     1      49.424   4.122 103.724  1.00  0.00    -0.353 N 
HETATM   23  C15 UNL     1      49.292   2.896 104.318  1.00  0.00     0.241 C 
HETATM   24  O2  UNL     1      48.832   1.902 103.770  1.00  0.00    -0.269 OA
HETATM   25  H13 UNL     1      50.012   4.817 104.163  1.00  0.00     0.163 HD
BRANCH  23  26
HETATM   26  C16 UNL     1      49.823   2.797 105.700  1.00  0.00     0.075 C 
HETATM   27  C17 UNL     1      50.910   2.084 106.031  1.00  0.00     0.018 C 
BRANCH  27  28
HETATM   28  C18 UNL     1      51.461   2.013 107.390  1.00  0.00    -0.018 A 
HETATM   29  C19 UNL     1      51.328   0.893 108.215  1.00  0.00     0.014 A 
HETATM   30  C20 UNL     1      51.850   0.911 109.507  1.00  0.00     0.020 A 
HETATM   31  C21 UNL     1      52.485   2.061 109.945  1.00  0.00     0.116 A 
HETATM   32  N4  UNL     1      52.623   3.170 109.191  1.00  0.00    -0.272 NA
HETATM   33  C22 UNL     1      52.105   3.121 107.940  1.00  0.00     0.127 A 
ENDBRANCH  27  28
ENDBRANCH  23  26
ENDBRANCH  21  22
ENDBRANCH   4  21
TORSDOF 7
ENDMDL
