MODEL 1
REMARK VINA RESULT:      -5.9      0.000      0.000
REMARK  13 active torsions:
REMARK  status: ('A' for Active; 'I' for Inactive)
REMARK    1  A    between atoms: C3_3  and  C22_24 
REMARK    2  A    between atoms: C4_4  and  C7_8 
REMARK    3  A    between atoms: C6_6  and  O1_7 
REMARK    4  A    between atoms: C10_11  and  C13_14 
REMARK    5  A    between atoms: C12_13  and  O2_23 
REMARK    6  A    between atoms: C13_14  and  C14_15 
REMARK    7  A    between atoms: C14_15  and  C15_16 
REMARK    8  A    between atoms: C15_16  and  C18_19 
REMARK    9  A    between atoms: C18_19  and  C19_20 
REMARK   10  A    between atoms: C19_20  and  C20_21 
REMARK   11  A    between atoms: C22_24  and  C23_25 
REMARK   12  A    between atoms: C23_25  and  C24_26 
REMARK   13  A    between atoms: C24_26  and  O3_27 
ROOT
HETATM    1  C7  UNL     1      49.676   2.294 104.377  1.00  0.00    -0.020 A 
HETATM    2  C8  UNL     1      49.081   2.606 105.607  1.00  0.00     0.011 A 
HETATM    3  C9  UNL     1      49.396   1.894 106.772  1.00  0.00     0.009 A 
HETATM    4  C10 UNL     1      50.319   0.839 106.756  1.00  0.00    -0.048 A 
HETATM    5  C11 UNL     1      50.924   0.538 105.519  1.00  0.00     0.045 A 
HETATM    6  C12 UNL     1      50.605   1.250 104.358  1.00  0.00     0.072 A 
ENDROOT
BRANCH   1   7
HETATM    7  C4  UNL     1      49.329   3.081 103.116  1.00  0.00     0.028 C 
HETATM    8  C3  UNL     1      47.839   2.919 102.695  1.00  0.00    -0.006 C 
HETATM    9  C2  UNL     1      47.334   4.093 101.827  1.00  0.00     0.008 C 
HETATM   10  C1  UNL     1      48.452   4.773 101.051  1.00  0.00     0.032 C 
HETATM   11  C6  UNL     1      49.532   5.342 101.975  1.00  0.00     0.118 C 
HETATM   12  C5  UNL     1      49.683   4.571 103.291  1.00  0.00     0.041 C 
BRANCH   8  13
HETATM   13  C22 UNL     1      47.501   1.528 102.102  1.00  0.00     0.007 C 
BRANCH  13  14
HETATM   14  C23 UNL     1      46.817   0.483 102.991  1.00  0.00     0.026 C 
BRANCH  14  15
HETATM   15  C24 UNL     1      46.112  -0.644 102.253  1.00  0.00     0.164 C 
BRANCH  15  16
HETATM   16  O3  UNL     1      44.805  -0.201 101.895  1.00  0.00    -0.401 OA
HETATM   17  H40 UNL     1      44.857   0.764 101.796  1.00  0.00     0.209 HD
ENDBRANCH  15  16
ENDBRANCH  14  15
ENDBRANCH  13  14
ENDBRANCH   8  13
BRANCH  11  18
HETATM   18  O1  UNL     1      50.764   5.333 101.256  1.00  0.00    -0.396 OA
HETATM   19  H10 UNL     1      51.385   4.763 101.740  1.00  0.00     0.210 HD
ENDBRANCH  11  18
ENDBRANCH   1   7
BRANCH   6  20
HETATM   20  O2  UNL     1      51.218   0.922 103.179  1.00  0.00    -0.360 OA
HETATM   21  H33 UNL     1      51.966   1.525 103.040  1.00  0.00     0.217 HD
ENDBRANCH   6  20
BRANCH   4  22
HETATM   22  C13 UNL     1      50.704   0.041 108.029  1.00  0.00    -0.020 C 
HETATM   23  C16 UNL     1      49.667   0.191 109.163  1.00  0.00     0.020 C 
HETATM   24  C17 UNL     1      50.753  -1.459 107.657  1.00  0.00     0.020 C 
BRANCH  22  25
HETATM   25  C14 UNL     1      52.097   0.575 108.494  1.00  0.00     0.013 C 
BRANCH  25  26
HETATM   26  C15 UNL     1      52.179   1.773 109.456  1.00  0.00     0.001 C 
BRANCH  26  27
HETATM   27  C18 UNL     1      52.328   3.136 108.782  1.00  0.00     0.000 C 
BRANCH  27  28
HETATM   28  C19 UNL     1      52.983   3.066 107.397  1.00  0.00    -0.000 C 
BRANCH  28  29
HETATM   29  C20 UNL     1      52.778   4.285 106.492  1.00  0.00    -0.005 C 
HETATM   30  C21 UNL     1      51.510   5.065 106.797  1.00  0.00     0.005 C 
ENDBRANCH  28  29
ENDBRANCH  27  28
ENDBRANCH  26  27
ENDBRANCH  25  26
ENDBRANCH  22  25
ENDBRANCH   4  22
TORSDOF 13
ENDMDL
