MODEL 1
REMARK VINA RESULT:      -6.4      0.000      0.000
REMARK  21 active torsions:
REMARK  status: ('A' for Active; 'I' for Inactive)
REMARK    1  A    between atoms: C1_1  and  C7_9 
REMARK    2  A    between atoms: C2_2  and  C6_6 
REMARK    3  A    between atoms: C3_3  and  O1_7 
REMARK    4  A    between atoms: C5_5  and  O2_8 
REMARK    5  A    between atoms: C6_6  and  C15_18 
REMARK    6  A    between atoms: C8_10  and  C9_11 
REMARK    7  A    between atoms: C9_11  and  C10_12 
REMARK    8  A    between atoms: C9_11  and  O3_15 
REMARK    9  A    between atoms: C10_12  and  C11_13 
REMARK   10  A    between atoms: C11_13  and  C12_14 
REMARK   11  A    between atoms: C12_14  and  C13_16 
REMARK   12  A    between atoms: C16_19  and  C17_20 
REMARK   13  A    between atoms: C17_20  and  C18_21 
REMARK   14  A    between atoms: C18_21  and  C19_22 
REMARK   15  A    between atoms: C19_22  and  C20_23 
REMARK   16  A    between atoms: C20_23  and  O4_24 
REMARK   17  A    between atoms: O4_24  and  C21_25 
REMARK   18  A    between atoms: C21_25  and  C22_27 
REMARK   19  A    between atoms: C22_27  and  C23_28 
REMARK   20  A    between atoms: C22_27  and  O7_30 
REMARK   21  A    between atoms: C23_28  and  O6_29 
ROOT
HETATM    1  C1  UNL     1      48.452   3.823 102.991  1.00  0.00     0.043 C 
HETATM    2  C2  UNL     1      48.957   2.390 103.271  1.00  0.00     0.028 C 
HETATM    3  C3  UNL     1      47.905   1.511 102.573  1.00  0.00     0.125 C 
HETATM    4  C4  UNL     1      47.449   2.303 101.347  1.00  0.00     0.064 C 
HETATM    5  C5  UNL     1      48.021   3.712 101.515  1.00  0.00     0.128 C 
ENDROOT
BRANCH   2   6
HETATM    6  C6  UNL     1      49.167   2.081 104.761  1.00  0.00     0.034 C 
BRANCH   6   7
HETATM    7  C15 UNL     1      49.813   0.736 104.968  1.00  0.00    -0.030 C 
HETATM    8  C16 UNL     1      50.309   0.249 106.118  1.00  0.00    -0.031 C 
BRANCH   8   9
HETATM    9  C17 UNL     1      50.334   0.924 107.462  1.00  0.00     0.027 C 
BRANCH   9  10
HETATM   10  C18 UNL     1      51.724   0.831 108.099  1.00  0.00     0.013 C 
BRANCH  10  11
HETATM   11  C19 UNL     1      51.743   1.364 109.529  1.00  0.00     0.111 C 
BRANCH  11  12
HETATM   12  C20 UNL     1      52.402   2.715 109.635  1.00  0.00     0.258 C 
HETATM   13  O5  UNL     1      52.561   3.323 110.684  1.00  0.00    -0.265 OA
BRANCH  12  14
HETATM   14  O4  UNL     1      52.792   3.153 108.407  1.00  0.00    -0.319 OA
BRANCH  14  15
HETATM   15  C21 UNL     1      52.338   4.485 108.088  1.00  0.00     0.212 C 
BRANCH  15  16
HETATM   16  C22 UNL     1      52.636   4.739 106.607  1.00  0.00     0.166 C 
BRANCH  16  17
HETATM   17  C23 UNL     1      54.132   4.651 106.306  1.00  0.00     0.198 C 
BRANCH  17  18
HETATM   18  O6  UNL     1      54.570   3.299 106.301  1.00  0.00    -0.398 OA
HETATM   19  H39 UNL     1      55.520   3.310 106.512  1.00  0.00     0.209 HD
ENDBRANCH  17  18
ENDBRANCH  16  17
BRANCH  16  20
HETATM   20  O7  UNL     1      51.941   3.773 105.806  1.00  0.00    -0.391 OA
HETATM   21  H40 UNL     1      51.779   4.208 104.948  1.00  0.00     0.210 HD
ENDBRANCH  16  20
ENDBRANCH  15  16
ENDBRANCH  14  15
ENDBRANCH  12  14
ENDBRANCH  11  12
ENDBRANCH  10  11
ENDBRANCH   9  10
ENDBRANCH   8   9
ENDBRANCH   6   7
ENDBRANCH   2   6
BRANCH   1  22
HETATM   22  C7  UNL     1      49.498   4.876 103.305  1.00  0.00    -0.021 C 
HETATM   23  C8  UNL     1      50.041   5.764 102.454  1.00  0.00     0.001 C 
BRANCH  23  24
HETATM   24  C9  UNL     1      51.108   6.772 102.787  1.00  0.00     0.140 C 
BRANCH  24  25
HETATM   25  C10 UNL     1      51.848   7.312 101.553  1.00  0.00     0.036 C 
BRANCH  25  26
HETATM   26  C11 UNL     1      51.088   7.303 100.216  1.00  0.00     0.003 C 
BRANCH  26  27
HETATM   27  C12 UNL     1      51.363   8.511  99.318  1.00  0.00    -0.000 C 
BRANCH  27  28
HETATM   28  C13 UNL     1      51.560   9.812 100.104  1.00  0.00    -0.005 C 
HETATM   29  C14 UNL     1      52.570  10.755  99.467  1.00  0.00     0.005 C 
ENDBRANCH  27  28
ENDBRANCH  26  27
ENDBRANCH  25  26
ENDBRANCH  24  25
BRANCH  24  30
HETATM   30  O3  UNL     1      52.043   6.230 103.712  1.00  0.00    -0.392 OA
HETATM   31  H25 UNL     1      52.854   6.032 103.215  1.00  0.00     0.210 HD
ENDBRANCH  24  30
ENDBRANCH  23  24
ENDBRANCH   1  22
BRANCH   3  32
HETATM   32  O1  UNL     1      46.758   1.287 103.389  1.00  0.00    -0.395 OA
HETATM   33  H14 UNL     1      46.733   0.342 103.617  1.00  0.00     0.210 HD
ENDBRANCH   3  32
BRANCH   5  34
HETATM   34  O2  UNL     1      47.059   4.703 101.172  1.00  0.00    -0.395 OA
HETATM   35  H15 UNL     1      47.421   5.224 100.436  1.00  0.00     0.210 HD
ENDBRANCH   5  34
TORSDOF 21
ENDMDL
