MODEL 1
REMARK VINA RESULT:      -6.7      0.000      0.000
REMARK  17 active torsions:
REMARK  status: ('A' for Active; 'I' for Inactive)
REMARK    1  A    between atoms: C1_1  and  O2_7 
REMARK    2  A    between atoms: C2_2  and  C12_14 
REMARK    3  A    between atoms: C3_3  and  C6_8 
REMARK    4  A    between atoms: C6_8  and  C7_9 
REMARK    5  A    between atoms: C8_10  and  C9_11 
REMARK    6  A    between atoms: C9_11  and  C10_12 
REMARK    7  A    between atoms: C10_12  and  C11_13 
REMARK    8  A    between atoms: C11_13  and  C20_23 
REMARK    9  A    between atoms: C13_15  and  C14_16 
REMARK   10  A    between atoms: C14_16  and  C15_17 
REMARK   11  A    between atoms: C14_16  and  O3_22 
REMARK   12  A    between atoms: C15_17  and  C16_18 
REMARK   13  A    between atoms: C16_18  and  C17_19 
REMARK   14  A    between atoms: C17_19  and  C18_20 
REMARK       I    between atoms: C20_23  and  N1_25 
REMARK   15  A    between atoms: N1_25  and  C21_26 
REMARK   16  A    between atoms: C21_26  and  C22_27 
REMARK   17  A    between atoms: C22_27  and  O5_28 
ROOT
HETATM    1  C1  UNL     1      48.980   3.709 102.598  1.00  0.00     0.133 C 
HETATM    2  C2  UNL     1      49.027   2.177 102.727  1.00  0.00     0.048 C 
HETATM    3  C3  UNL     1      48.296   1.867 104.051  1.00  0.00     0.069 C 
HETATM    4  C4  UNL     1      47.355   3.045 104.173  1.00  0.00     0.134 C 
HETATM    5  C5  UNL     1      47.641   4.141 103.183  1.00  0.00     0.111 C 
HETATM    6  O1  UNL     1      46.430   3.090 104.977  1.00  0.00    -0.297 OA
ENDROOT
BRANCH   3   7
HETATM    7  C6  UNL     1      49.199   1.811 105.287  1.00  0.00     0.040 C 
BRANCH   7   8
HETATM    8  C7  UNL     1      50.341   0.845 105.118  1.00  0.00    -0.030 C 
HETATM    9  C8  UNL     1      50.703  -0.158 105.934  1.00  0.00    -0.031 C 
BRANCH   9  10
HETATM   10  C9  UNL     1      50.060  -0.576 107.228  1.00  0.00     0.027 C 
BRANCH  10  11
HETATM   11  C10 UNL     1      50.329   0.405 108.376  1.00  0.00     0.013 C 
BRANCH  11  12
HETATM   12  C11 UNL     1      51.811   0.634 108.682  1.00  0.00     0.103 C 
BRANCH  12  13
HETATM   13  C20 UNL     1      52.178   2.102 108.813  1.00  0.00     0.217 C 
HETATM   14  O4  UNL     1      52.627   2.604 109.838  1.00  0.00    -0.274 OA
HETATM   15  N1  UNL     1      51.929   2.822 107.665  1.00  0.00    -0.359 N 
HETATM   16  H32 UNL     1      51.838   2.315 106.793  1.00  0.00     0.162 HD
BRANCH  15  17
HETATM   17  C21 UNL     1      52.342   4.210 107.550  1.00  0.00     0.148 C 
BRANCH  17  18
HETATM   18  C22 UNL     1      53.502   4.374 106.569  1.00  0.00     0.183 C 
BRANCH  18  19
HETATM   19  O5  UNL     1      53.098   5.214 105.486  1.00  0.00    -0.399 OA
HETATM   20  H37 UNL     1      53.021   4.639 104.705  1.00  0.00     0.209 HD
ENDBRANCH  18  19
ENDBRANCH  17  18
ENDBRANCH  15  17
ENDBRANCH  12  13
ENDBRANCH  11  12
ENDBRANCH  10  11
ENDBRANCH   9  10
ENDBRANCH   7   8
ENDBRANCH   3   7
BRANCH   2  21
HETATM   21  C12 UNL     1      48.349   1.502 101.553  1.00  0.00    -0.020 C 
HETATM   22  C13 UNL     1      47.286   0.691 101.686  1.00  0.00     0.001 C 
BRANCH  22  23
HETATM   23  C14 UNL     1      46.568   0.032 100.544  1.00  0.00     0.140 C 
BRANCH  23  24
HETATM   24  C15 UNL     1      45.645  -1.103 100.995  1.00  0.00     0.036 C 
BRANCH  24  25
HETATM   25  C16 UNL     1      45.241  -1.000 102.467  1.00  0.00     0.003 C 
BRANCH  25  26
HETATM   26  C17 UNL     1      45.716  -2.174 103.330  1.00  0.00    -0.000 C 
BRANCH  26  27
HETATM   27  C18 UNL     1      45.975  -3.474 102.560  1.00  0.00    -0.005 C 
HETATM   28  C19 UNL     1      46.005  -4.707 103.453  1.00  0.00     0.005 C 
ENDBRANCH  26  27
ENDBRANCH  25  26
ENDBRANCH  24  25
ENDBRANCH  23  24
BRANCH  23  29
HETATM   29  O3  UNL     1      47.565  -0.521  99.693  1.00  0.00    -0.392 OA
HETATM   30  H31 UNL     1      48.358   0.032  99.792  1.00  0.00     0.210 HD
ENDBRANCH  23  29
ENDBRANCH  22  23
ENDBRANCH   2  21
BRANCH   1  31
HETATM   31  O2  UNL     1      50.031   4.306 103.353  1.00  0.00    -0.394 OA
HETATM   32  H6  UNL     1      49.969   3.973 104.268  1.00  0.00     0.210 HD
ENDBRANCH   1  31
TORSDOF 17
ENDMDL
