MODEL 1
REMARK VINA RESULT:      -7.5      0.000      0.000
REMARK  2 active torsions:
REMARK  status: ('A' for Active; 'I' for Inactive)
REMARK    1  A    between atoms: C2_2  and  O1_18 
REMARK    2  A    between atoms: C17_17  and  O3_22 
ROOT
HETATM    1  C1  UNL     1      46.875   1.238 102.378  1.00  0.00     0.055 C 
HETATM    2  C2  UNL     1      46.659   2.360 101.658  1.00  0.00     0.091 C 
HETATM    3  C3  UNL     1      47.190   3.670 102.092  1.00  0.00     0.215 A 
HETATM    4  C4  UNL     1      48.387   3.670 103.027  1.00  0.00     0.102 A 
HETATM    5  C5  UNL     1      48.876   2.333 103.598  1.00  0.00    -0.001 C 
HETATM    6  C6  UNL     1      47.698   1.303 103.649  1.00  0.00     0.065 C 
HETATM    7  C7  UNL     1      49.369   4.806 103.025  1.00  0.00     0.042 C 
HETATM    8  C8  UNL     1      49.906   5.048 104.434  1.00  0.00     0.008 C 
HETATM    9  C9  UNL     1      50.488   3.765 105.052  1.00  0.00    -0.005 C 
HETATM   10  C10 UNL     1      49.432   2.607 105.042  1.00  0.00     0.001 C 
HETATM   11  C11 UNL     1      50.942   3.993 106.498  1.00  0.00     0.001 C 
HETATM   12  C12 UNL     1      51.582   2.740 107.125  1.00  0.00    -0.014 C 
HETATM   13  C13 UNL     1      50.520   1.635 107.173  1.00  0.00     0.012 C 
HETATM   14  C14 UNL     1      49.943   1.341 105.775  1.00  0.00     0.007 C 
HETATM   15  C15 UNL     1      51.954   5.096 106.793  1.00  0.00     0.008 C 
HETATM   16  C16 UNL     1      52.526   4.719 108.171  1.00  0.00     0.033 C 
HETATM   17  C17 UNL     1      51.973   3.320 108.499  1.00  0.00     0.126 C 
HETATM   18  O2  UNL     1      47.082   4.087 103.466  1.00  0.00    -0.361 OA
HETATM   19  C18 UNL     1      49.966   1.754 102.658  1.00  0.00     0.019 C 
HETATM   20  C19 UNL     1      52.840   2.217 106.384  1.00  0.00     0.018 C 
HETATM   21  C20 UNL     1      46.345  -0.024 101.974  1.00  0.00     0.097 C 
HETATM   22  N1  UNL     1      45.942  -1.074 101.688  1.00  0.00    -0.192 NA
ENDROOT
BRANCH   2  23
HETATM   23  O1  UNL     1      45.898   2.296 100.503  1.00  0.00    -0.361 OA
HETATM   24  H20 UNL     1      44.991   2.032 100.739  1.00  0.00     0.217 HD
ENDBRANCH   2  23
BRANCH  17  25
HETATM   25  O3  UNL     1      52.935   2.547 109.191  1.00  0.00    -0.395 OA
HETATM   26  H27 UNL     1      53.291   1.894 108.563  1.00  0.00     0.210 HD
ENDBRANCH  17  25
TORSDOF 2
ENDMDL
