MODEL 1
REMARK VINA RESULT:      -7.8      0.000      0.000
REMARK  9 active torsions:
REMARK  status: ('A' for Active; 'I' for Inactive)
REMARK    1  A    between atoms: C1_1  and  C2_2 
REMARK    2  A    between atoms: C1_1  and  C3_4 
REMARK    3  A    between atoms: C6_7  and  O2_23 
REMARK    4  A    between atoms: N1_11  and  C16_18 
REMARK    5  A    between atoms: C16_18  and  C17_19 
REMARK    6  A    between atoms: C17_19  and  C18_20 
REMARK    7  A    between atoms: C18_20  and  C19_21 
REMARK    8  A    between atoms: C19_21  and  C20_22 
REMARK    9  A    between atoms: C20_22  and  O3_25 
ROOT
HETATM    1  C2  UNL     1      50.287   2.057 105.966  1.00  0.00     0.043 A 
HETATM    2  C9  UNL     1      50.846   3.302 105.738  1.00  0.00     0.107 A 
HETATM    3  N1  UNL     1      51.687   3.603 106.772  1.00  0.00    -0.355 N 
HETATM    4  C10 UNL     1      51.672   2.590 107.707  1.00  0.00     0.045 A 
HETATM    5  C11 UNL     1      50.782   1.614 107.240  1.00  0.00     0.006 A 
HETATM    6  C12 UNL     1      52.354   2.456 108.929  1.00  0.00     0.030 A 
HETATM    7  C13 UNL     1      52.117   1.316 109.699  1.00  0.00     0.002 A 
HETATM    8  C14 UNL     1      51.221   0.344 109.273  1.00  0.00     0.001 A 
HETATM    9  C15 UNL     1      50.548   0.482 108.054  1.00  0.00     0.015 A 
ENDROOT
BRANCH   1  10
HETATM   10  C1  UNL     1      49.347   1.427 105.043  1.00  0.00     0.194 C 
HETATM   11  O1  UNL     1      48.960   0.269 105.194  1.00  0.00    -0.287 OA
BRANCH  10  12
HETATM   12  C3  UNL     1      48.811   2.205 103.897  1.00  0.00     0.015 A 
HETATM   13  C4  UNL     1      47.659   2.991 104.017  1.00  0.00     0.018 A 
HETATM   14  C5  UNL     1      47.169   3.699 102.912  1.00  0.00     0.037 A 
HETATM   15  C6  UNL     1      47.819   3.613 101.680  1.00  0.00     0.068 A 
HETATM   16  C7  UNL     1      48.956   2.808 101.558  1.00  0.00     0.037 A 
HETATM   17  C8  UNL     1      49.448   2.099 102.656  1.00  0.00     0.018 A 
BRANCH  15  18
HETATM   18  O2  UNL     1      47.448   4.252 100.530  1.00  0.00    -0.356 OA
HETATM   19  C21 UNL     1      47.879   3.675  99.303  1.00  0.00     0.210 C 
ENDBRANCH  15  18
ENDBRANCH  10  12
ENDBRANCH   1  10
BRANCH   3  20
HETATM   20  C16 UNL     1      52.450   4.840 106.869  1.00  0.00     0.128 C 
BRANCH  20  21
HETATM   21  C17 UNL     1      53.851   4.696 106.278  1.00  0.00     0.020 C 
BRANCH  21  22
HETATM   22  C18 UNL     1      54.192   5.788 105.261  1.00  0.00     0.004 C 
BRANCH  22  23
HETATM   23  C19 UNL     1      53.097   6.852 105.126  1.00  0.00     0.026 C 
BRANCH  23  24
HETATM   24  C20 UNL     1      52.311   6.699 103.827  1.00  0.00     0.164 C 
BRANCH  24  25
HETATM   25  O3  UNL     1      50.914   6.723 104.084  1.00  0.00    -0.401 OA
HETATM   26  H23 UNL     1      50.503   7.304 103.423  1.00  0.00     0.209 HD
ENDBRANCH  24  25
ENDBRANCH  23  24
ENDBRANCH  22  23
ENDBRANCH  21  22
ENDBRANCH  20  21
ENDBRANCH   3  20
TORSDOF 9
ENDMDL
