MODEL 1
REMARK VINA RESULT:      -8.0      0.000      0.000
REMARK  8 active torsions:
REMARK  status: ('A' for Active; 'I' for Inactive)
REMARK    1  A    between atoms: C1_1  and  C2_2 
REMARK    2  A    between atoms: C1_1  and  C3_4 
REMARK    3  A    between atoms: N1_11  and  C16_18 
REMARK    4  A    between atoms: C16_18  and  C17_19 
REMARK    5  A    between atoms: C17_19  and  C18_20 
REMARK    6  A    between atoms: C18_20  and  C19_21 
REMARK    7  A    between atoms: C19_21  and  C20_22 
REMARK    8  A    between atoms: C20_22  and  O2_28 
ROOT
HETATM    1  C2  UNL     1      49.204   1.932 105.116  1.00  0.00     0.043 A 
HETATM    2  C9  UNL     1      49.229   0.561 105.306  1.00  0.00     0.107 A 
HETATM    3  N1  UNL     1      50.183   0.257 106.238  1.00  0.00    -0.355 N 
HETATM    4  C10 UNL     1      50.806   1.409 106.667  1.00  0.00     0.045 A 
HETATM    5  C11 UNL     1      50.204   2.481 105.992  1.00  0.00     0.006 A 
HETATM    6  C12 UNL     1      51.843   1.595 107.597  1.00  0.00     0.030 A 
HETATM    7  C13 UNL     1      52.275   2.895 107.861  1.00  0.00     0.002 A 
HETATM    8  C14 UNL     1      51.692   3.978 107.219  1.00  0.00     0.001 A 
HETATM    9  C15 UNL     1      50.660   3.786 106.293  1.00  0.00     0.015 A 
ENDROOT
BRANCH   1  10
HETATM   10  C1  UNL     1      48.278   2.565 104.176  1.00  0.00     0.195 C 
HETATM   11  O1  UNL     1      47.174   2.989 104.512  1.00  0.00    -0.287 OA
BRANCH  10  12
HETATM   12  C3  UNL     1      48.667   2.729 102.762  1.00  0.00     0.026 A 
HETATM   13  C4  UNL     1      49.295   3.909 102.284  1.00  0.00    -0.010 A 
HETATM   14  C5  UNL     1      49.626   3.985 100.904  1.00  0.00    -0.003 A 
HETATM   15  C21 UNL     1      49.612   5.009 103.118  1.00  0.00     0.013 A 
HETATM   16  C6  UNL     1      49.333   2.872 100.071  1.00  0.00     0.045 A 
HETATM   17  C24 UNL     1      50.236   5.170 100.426  1.00  0.00     0.014 A 
HETATM   18  C7  UNL     1      48.742   1.712 100.579  1.00  0.00     0.026 A 
HETATM   19 CL1  UNL     1      49.695   2.871  98.374  1.00  0.00    -0.083 Cl
HETATM   20  C8  UNL     1      48.412   1.636 101.925  1.00  0.00     0.018 A 
HETATM   21  C23 UNL     1      50.525   6.245 101.268  1.00  0.00     0.001 A 
HETATM   22  C22 UNL     1      50.215   6.161 102.616  1.00  0.00     0.001 A 
ENDBRANCH  10  12
ENDBRANCH   1  10
BRANCH   3  23
HETATM   23  C16 UNL     1      50.491  -1.093 106.678  1.00  0.00     0.128 C 
BRANCH  23  24
HETATM   24  C17 UNL     1      49.394  -1.734 107.528  1.00  0.00     0.020 C 
BRANCH  24  25
HETATM   25  C18 UNL     1      48.677  -2.886 106.816  1.00  0.00     0.004 C 
BRANCH  25  26
HETATM   26  C19 UNL     1      47.266  -2.482 106.392  1.00  0.00     0.026 C 
BRANCH  26  27
HETATM   27  C20 UNL     1      46.507  -3.650 105.780  1.00  0.00     0.164 C 
BRANCH  27  28
HETATM   28  O2  UNL     1      45.927  -4.418 106.825  1.00  0.00    -0.401 OA
HETATM   29  H22 UNL     1      45.909  -3.854 107.617  1.00  0.00     0.209 HD
ENDBRANCH  27  28
ENDBRANCH  26  27
ENDBRANCH  25  26
ENDBRANCH  24  25
ENDBRANCH  23  24
ENDBRANCH   3  23
TORSDOF 8
ENDMDL
