MODEL 1
REMARK VINA RESULT:      -8.1      0.000      0.000
REMARK  7 active torsions:
REMARK  status: ('A' for Active; 'I' for Inactive)
REMARK    1  A    between atoms: C1_1  and  C2_2 
REMARK    2  A    between atoms: C1_1  and  C3_4 
REMARK    3  A    between atoms: N1_6  and  C11_13 
REMARK    4  A    between atoms: C11_13  and  C12_14 
REMARK    5  A    between atoms: C12_14  and  C13_15 
REMARK    6  A    between atoms: C13_15  and  C14_16 
REMARK    7  A    between atoms: C14_16  and  O2_18 
ROOT
HETATM    1  C2  UNL     1      50.240   2.083 105.944  1.00  0.00     0.038 A 
HETATM    2  C4  UNL     1      50.662   3.388 105.749  1.00  0.00     0.107 A 
HETATM    3  N1  UNL     1      51.437   3.769 106.807  1.00  0.00    -0.355 N 
HETATM    4  C5  UNL     1      51.569   2.725 107.697  1.00  0.00     0.045 A 
HETATM    5  C6  UNL     1      50.843   1.644 107.174  1.00  0.00     0.006 A 
HETATM    6  C7  UNL     1      52.267   2.641 108.915  1.00  0.00     0.030 A 
HETATM    7  C8  UNL     1      52.246   1.431 109.610  1.00  0.00     0.002 A 
HETATM    8  C9  UNL     1      51.558   0.335 109.106  1.00  0.00     0.001 A 
HETATM    9  C10 UNL     1      50.861   0.429 107.896  1.00  0.00     0.014 A 
ENDROOT
BRANCH   1  10
HETATM   10  C1  UNL     1      49.364   1.399 104.999  1.00  0.00     0.167 C 
HETATM   11  O1  UNL     1      48.921   0.273 105.205  1.00  0.00    -0.292 OA
BRANCH  10  12
HETATM   12  C3  UNL     1      48.990   2.127 103.752  1.00  0.00     0.077 A 
HETATM   13  C16 UNL     1      47.829   1.711 102.846  1.00  0.00    -0.029 A 
HETATM   14  C17 UNL     1      47.731   2.996 103.681  1.00  0.00    -0.029 A 
HETATM   15  C20 UNL     1      46.962   0.524 103.206  1.00  0.00     0.016 C 
HETATM   16  C21 UNL     1      48.018   1.832 101.347  1.00  0.00     0.016 C 
HETATM   17  C18 UNL     1      46.764   3.052 104.847  1.00  0.00     0.016 C 
HETATM   18  C19 UNL     1      47.860   4.343 103.002  1.00  0.00     0.016 C 
ENDBRANCH  10  12
ENDBRANCH   1  10
BRANCH   3  19
HETATM   19  C11 UNL     1      52.050   5.081 106.939  1.00  0.00     0.129 C 
BRANCH  19  20
HETATM   20  C12 UNL     1      53.109   5.334 105.866  1.00  0.00     0.023 C 
BRANCH  20  21
HETATM   21  C13 UNL     1      52.779   6.594 105.058  1.00  0.00     0.033 C 
BRANCH  21  22
HETATM   22  C14 UNL     1      51.795   6.363 103.906  1.00  0.00     0.114 C 
HETATM   23  C15 UNL     1      52.133   7.159 102.652  1.00  0.00     0.039 C 
BRANCH  22  24
HETATM   24  O2  UNL     1      50.475   6.710 104.311  1.00  0.00    -0.396 OA
HETATM   25  H17 UNL     1      50.261   6.186 105.103  1.00  0.00     0.210 HD
ENDBRANCH  22  24
ENDBRANCH  21  22
ENDBRANCH  20  21
ENDBRANCH  19  20
ENDBRANCH   3  19
TORSDOF 7
ENDMDL
