MODEL 1
REMARK VINA RESULT:      -8.5      0.000      0.000
REMARK  2 active torsions:
REMARK  status: ('A' for Active; 'I' for Inactive)
REMARK       I    between atoms: N2_15  and  C14_16 
REMARK    1  A    between atoms: C14_16  and  C15_18 
REMARK    2  A    between atoms: C15_18  and  N3_19 
ROOT
HETATM    1  C1  UNL     1      51.910   0.773 109.351  1.00  0.00     0.001 A 
HETATM    2  C2  UNL     1      51.021  -0.009 108.660  1.00  0.00     0.001 A 
HETATM    3  C3  UNL     1      50.387   0.408 107.505  1.00  0.00     0.013 A 
HETATM    4  C4  UNL     1      50.661   1.666 107.029  1.00  0.00    -0.008 A 
HETATM    5  C5  UNL     1      51.560   2.468 107.718  1.00  0.00     0.043 A 
HETATM    6  C6  UNL     1      52.187   2.017 108.885  1.00  0.00     0.018 A 
HETATM    7  C7  UNL     1      50.074   2.167 105.879  1.00  0.00     0.004 A 
HETATM    8  C8  UNL     1      50.389   3.458 105.435  1.00  0.00     0.046 A 
HETATM    9  N1  UNL     1      51.268   4.219 106.127  1.00  0.00    -0.322 N 
HETATM   10  C9  UNL     1      51.836   3.732 107.239  1.00  0.00     0.257 A 
HETATM   11  C10 UNL     1      49.193   1.406 105.185  1.00  0.00     0.044 A 
HETATM   12  C11 UNL     1      48.570   1.873 104.012  1.00  0.00     0.035 A 
HETATM   13  C12 UNL     1      48.874   3.125 103.577  1.00  0.00     0.032 A 
HETATM   14  C13 UNL     1      49.786   3.923 104.290  1.00  0.00     0.033 A 
HETATM   15  N2  UNL     1      47.657   1.042 103.353  1.00  0.00    -0.326 N 
HETATM   16  C14 UNL     1      47.122   1.201 102.056  1.00  0.00     0.250 C 
HETATM   17  O1  UNL     1      47.484   2.188 101.370  1.00  0.00    -0.271 OA
HETATM   18  O2  UNL     1      52.650   4.469 107.857  1.00  0.00    -0.267 OA
HETATM   19 CL1  UNL     1      48.110   0.993 104.468  1.00  0.00    -0.145 Cl
HETATM   20  H5  UNL     1      51.456   5.168 105.738  1.00  0.00     0.169 HD
HETATM   21  H9  UNL     1      47.325   0.181 103.885  1.00  0.00     0.169 HD
HETATM   22  H18 UNL     1      49.174   1.342 105.252  1.00  0.00     0.145 HD
ENDROOT
BRANCH  16  23
HETATM   23  C15 UNL     1      46.140   0.238 101.469  1.00  0.00     0.373 C 
BRANCH  23  24
HETATM   24  N3  UNL     1      46.108  -1.030 102.162  1.00  0.00     0.088 N 
HETATM   25  C16 UNL     1      46.065  -2.092 101.148  1.00  0.00     0.310 C 
HETATM   26  C17 UNL     1      44.855  -1.178 102.912  1.00  0.00     0.310 C 
ENDBRANCH  23  24
ENDBRANCH  16  23
TORSDOF 2
ENDMDL
