MODEL 1
REMARK VINA RESULT:      -9.2      0.000      0.000
REMARK  5 active torsions:
REMARK  status: ('A' for Active; 'I' for Inactive)
REMARK    1  A    between atoms: C1_1  and  C2_2 
REMARK    2  A    between atoms: C1_1  and  O2_4 
REMARK    3  A    between atoms: O2_4  and  C3_5 
REMARK    4  A    between atoms: N2_12  and  C15_19 
REMARK    5  A    between atoms: C15_19  and  C16_20 
ROOT
HETATM    1  C2  UNL     1      49.093   1.635 104.832  1.00  0.00     0.068 A 
HETATM    2  C8  UNL     1      49.481   2.932 105.116  1.00  0.00     0.110 A 
HETATM    3  N2  UNL     1      50.273   2.926 106.233  1.00  0.00    -0.355 N 
HETATM    4  C9  UNL     1      50.437   1.635 106.687  1.00  0.00     0.045 A 
HETATM    5  C10 UNL     1      49.702   0.802 105.832  1.00  0.00     0.008 A 
HETATM    6  C11 UNL     1      51.166   1.127 107.777  1.00  0.00     0.030 A 
HETATM    7  C12 UNL     1      51.148  -0.250 108.007  1.00  0.00     0.002 A 
HETATM    8  C13 UNL     1      50.426  -1.099 107.178  1.00  0.00     0.001 A 
HETATM    9  C14 UNL     1      49.705  -0.588 106.095  1.00  0.00     0.015 A 
ENDROOT
BRANCH   1  10
HETATM   10  C1  UNL     1      48.235   1.286 103.702  1.00  0.00     0.300 C 
HETATM   11  O1  UNL     1      48.578   1.444 102.535  1.00  0.00    -0.259 OA
BRANCH  10  12
HETATM   12  O2  UNL     1      47.009   0.767 104.108  1.00  0.00    -0.274 OA
BRANCH  12  13
HETATM   13  C3  UNL     1      46.515  -0.265 103.295  1.00  0.00     0.093 A 
HETATM   14  C4  UNL     1      46.354  -1.553 103.837  1.00  0.00     0.027 A 
HETATM   15  C5  UNL     1      45.807  -2.527 102.981  1.00  0.00     0.069 A 
HETATM   16  C22 UNL     1      46.710  -1.900 105.160  1.00  0.00     0.017 A 
HETATM   17  N1  UNL     1      45.437  -2.258 101.715  1.00  0.00    -0.260 NA
HETATM   18  C25 UNL     1      45.636  -3.816 103.472  1.00  0.00     0.032 A 
HETATM   19  C6  UNL     1      45.602  -1.000 101.250  1.00  0.00     0.120 A 
HETATM   20  C7  UNL     1      46.124   0.035 101.998  1.00  0.00     0.057 A 
HETATM   21  C24 UNL     1      45.989  -4.160 104.780  1.00  0.00     0.002 A 
HETATM   22  C23 UNL     1      46.526  -3.200 105.628  1.00  0.00     0.001 A 
ENDBRANCH  12  13
ENDBRANCH  10  12
ENDBRANCH   1  10
BRANCH   3  23
HETATM   23  C15 UNL     1      50.863   4.129 106.805  1.00  0.00     0.133 C 
BRANCH  23  24
HETATM   24  C16 UNL     1      52.051   4.673 105.994  1.00  0.00     0.004 C 
HETATM   25  C17 UNL     1      51.813   6.117 105.510  1.00  0.00     0.006 C 
HETATM   26  C18 UNL     1      53.101   6.890 105.212  1.00  0.00     0.000 C 
HETATM   27  C19 UNL     1      54.257   5.968 104.853  1.00  0.00     0.000 C 
HETATM   28  C20 UNL     1      54.572   4.992 105.986  1.00  0.00     0.000 C 
HETATM   29  C21 UNL     1      53.346   4.593 106.812  1.00  0.00     0.006 C 
ENDBRANCH  23  24
ENDBRANCH   3  23
TORSDOF 5
ENDMDL
