MODEL 1
REMARK VINA RESULT:      -8.3      0.000      0.000
REMARK  8 active torsions:
REMARK  status: ('A' for Active; 'I' for Inactive)
REMARK    1  A    between atoms: C1_1  and  C2_2 
REMARK    2  A    between atoms: C1_1  and  O2_4 
REMARK    3  A    between atoms: O2_4  and  C3_5 
REMARK    4  A    between atoms: N2_12  and  C15_19 
REMARK    5  A    between atoms: C15_19  and  C16_20 
REMARK    6  A    between atoms: C16_20  and  C17_21 
REMARK    7  A    between atoms: C17_21  and  C18_22 
REMARK    8  A    between atoms: C18_22  and  C19_23 
ROOT
HETATM    1  C2  UNL     1      50.043   2.047 105.104  1.00  0.00     0.068 A 
HETATM    2  C8  UNL     1      50.678   3.134 105.681  1.00  0.00     0.110 A 
HETATM    3  N2  UNL     1      51.172   2.762 106.901  1.00  0.00    -0.355 N 
HETATM    4  C9  UNL     1      50.877   1.439 107.149  1.00  0.00     0.045 A 
HETATM    5  C10 UNL     1      50.168   0.960 106.037  1.00  0.00     0.008 A 
HETATM    6  C11 UNL     1      51.170   0.626 108.256  1.00  0.00     0.030 A 
HETATM    7  C12 UNL     1      50.739  -0.702 108.237  1.00  0.00     0.002 A 
HETATM    8  C13 UNL     1      50.037  -1.207 107.149  1.00  0.00     0.001 A 
HETATM    9  C14 UNL     1      49.747  -0.390 106.051  1.00  0.00     0.015 A 
ENDROOT
BRANCH   1  10
HETATM   10  C1  UNL     1      49.397   2.100 103.795  1.00  0.00     0.300 C 
HETATM   11  O1  UNL     1      50.015   1.953 102.744  1.00  0.00    -0.259 OA
BRANCH  10  12
HETATM   12  O2  UNL     1      48.028   2.330 103.886  1.00  0.00    -0.274 OA
BRANCH  12  13
HETATM   13  C3  UNL     1      47.280   1.834 102.808  1.00  0.00     0.093 A 
HETATM   14  C4  UNL     1      46.725   0.544 102.886  1.00  0.00     0.027 A 
HETATM   15  C5  UNL     1      46.032   0.091 101.746  1.00  0.00     0.069 A 
HETATM   16  C20 UNL     1      46.832  -0.291 104.022  1.00  0.00     0.017 A 
HETATM   17  N1  UNL     1      45.906   0.833 100.630  1.00  0.00    -0.260 NA
HETATM   18  C23 UNL     1      45.463  -1.176 101.782  1.00  0.00     0.032 A 
HETATM   19  C6  UNL     1      46.470   2.062 100.607  1.00  0.00     0.120 A 
HETATM   20  C7  UNL     1      47.174   2.606 101.658  1.00  0.00     0.057 A 
HETATM   21  C22 UNL     1      45.565  -2.000 102.906  1.00  0.00     0.002 A 
HETATM   22  C21 UNL     1      46.253  -1.557 104.029  1.00  0.00     0.001 A 
ENDBRANCH  12  13
ENDBRANCH  10  12
ENDBRANCH   1  10
BRANCH   3  23
HETATM   23  C15 UNL     1      51.911   3.649 107.786  1.00  0.00     0.128 C 
BRANCH  23  24
HETATM   24  C16 UNL     1      52.683   4.719 107.013  1.00  0.00     0.020 C 
BRANCH  24  25
HETATM   25  C17 UNL     1      53.989   4.202 106.404  1.00  0.00     0.004 C 
BRANCH  25  26
HETATM   26  C18 UNL     1      54.789   5.283 105.674  1.00  0.00     0.031 C 
BRANCH  26  27
HETATM   27  C19 UNL     1      53.875   6.328 105.054  1.00  0.00     0.222 C 
HETATM   28  F1  UNL     1      54.343   7.566 105.362  1.00  0.00    -0.255 F 
ENDBRANCH  26  27
ENDBRANCH  25  26
ENDBRANCH  24  25
ENDBRANCH  23  24
ENDBRANCH   3  23
TORSDOF 8
ENDMDL
