MODEL 1
REMARK VINA RESULT:      -8.4      0.000      0.000
REMARK  7 active torsions:
REMARK  status: ('A' for Active; 'I' for Inactive)
REMARK    1  A    between atoms: C2_2  and  C5_6 
REMARK    2  A    between atoms: N1_4  and  C7_10 
REMARK    3  A    between atoms: C5_6  and  O2_8 
REMARK    4  A    between atoms: O2_8  and  C6_9 
REMARK    5  A    between atoms: C7_10  and  C8_11 
REMARK    6  A    between atoms: C8_11  and  C9_12 
REMARK    7  A    between atoms: C9_12  and  C10_13 
ROOT
HETATM    1  C1  UNL     1      51.107   1.629 107.551  1.00  0.00     0.008 A 
HETATM    2  C2  UNL     1      50.553   1.900 106.253  1.00  0.00     0.068 A 
HETATM    3  C3  UNL     1      51.019   3.152 105.885  1.00  0.00     0.110 A 
HETATM    4  N1  UNL     1      51.815   3.641 106.882  1.00  0.00    -0.355 N 
HETATM    5  C4  UNL     1      51.890   2.732 107.915  1.00  0.00     0.045 A 
HETATM    6  C11 UNL     1      52.582   2.789 109.138  1.00  0.00     0.030 A 
HETATM    7  C12 UNL     1      52.478   1.704 110.011  1.00  0.00     0.002 A 
HETATM    8  C13 UNL     1      51.706   0.599 109.679  1.00  0.00     0.001 A 
HETATM    9  C14 UNL     1      51.021   0.548 108.461  1.00  0.00     0.015 A 
ENDROOT
BRANCH   2  10
HETATM   10  C5  UNL     1      49.678   1.092 105.409  1.00  0.00     0.301 C 
HETATM   11  O1  UNL     1      49.858  -0.106 105.221  1.00  0.00    -0.259 OA
BRANCH  10  12
HETATM   12  O2  UNL     1      48.638   1.834 104.857  1.00  0.00    -0.273 OA
BRANCH  12  13
HETATM   13  C6  UNL     1      48.494   1.712 103.470  1.00  0.00     0.108 A 
HETATM   14  C15 UNL     1      47.501   0.863 102.949  1.00  0.00     0.011 A 
HETATM   15  C16 UNL     1      47.349   0.815 101.548  1.00  0.00    -0.006 A 
HETATM   16  C20 UNL     1      46.658   0.061 103.748  1.00  0.00     0.015 A 
HETATM   17  C17 UNL     1      48.186   1.627 100.774  1.00  0.00     0.128 A 
HETATM   18  C23 UNL     1      46.377  -0.026 100.977  1.00  0.00     0.014 A 
HETATM   19  N2  UNL     1      49.130   2.463 101.267  1.00  0.00    -0.269 NA
HETATM   20  C18 UNL     1      49.263   2.485 102.611  1.00  0.00     0.154 A 
HETATM   21  C22 UNL     1      45.555  -0.812 101.785  1.00  0.00     0.001 A 
HETATM   22  C21 UNL     1      45.695  -0.768 103.169  1.00  0.00     0.001 A 
ENDBRANCH  12  13
ENDBRANCH  10  12
ENDBRANCH   2  10
BRANCH   4  23
HETATM   23  C7  UNL     1      52.467   4.940 106.840  1.00  0.00     0.128 C 
BRANCH  23  24
HETATM   24  C8  UNL     1      53.909   4.845 106.345  1.00  0.00     0.020 C 
BRANCH  24  25
HETATM   25  C9  UNL     1      54.182   5.861 105.236  1.00  0.00     0.001 C 
BRANCH  25  26
HETATM   26  C10 UNL     1      52.988   6.790 105.025  1.00  0.00    -0.004 C 
HETATM   27  C19 UNL     1      52.578   6.850 103.563  1.00  0.00     0.005 C 
ENDBRANCH  25  26
ENDBRANCH  24  25
ENDBRANCH  23  24
ENDBRANCH   4  23
TORSDOF 7
ENDMDL
