MODEL 1
REMARK VINA RESULT:      -9.4      0.000      0.000
REMARK  10 active torsions:
REMARK  status: ('A' for Active; 'I' for Inactive)
REMARK    1  A    between atoms: C7_7  and  N1_17 
REMARK    2  A    between atoms: C10_10  and  N2_27 
REMARK    3  A    between atoms: N1_17  and  C15_18 
REMARK    4  A    between atoms: C15_18  and  C16_19 
REMARK    5  A    between atoms: C16_19  and  C17_20 
REMARK    6  A    between atoms: C20_23  and  O3_26 
REMARK    7  A    between atoms: N2_27  and  C23_28 
REMARK    8  A    between atoms: C23_28  and  C24_29 
REMARK    9  A    between atoms: C24_29  and  C25_30 
REMARK   10  A    between atoms: C28_33  and  O4_36 
ROOT
HETATM    1  C1  UNL     1      48.957   2.709  99.662  1.00  0.00     0.029 A 
HETATM    2  C2  UNL     1      47.935   1.904  99.183  1.00  0.00     0.029 A 
HETATM    3  C3  UNL     1      47.152   1.069 100.109  1.00  0.00     0.196 A 
HETATM    4  C4  UNL     1      47.400   1.143 101.576  1.00  0.00     0.052 A 
HETATM    5  C5  UNL     1      48.473   1.920 102.057  1.00  0.00     0.052 A 
HETATM    6  C6  UNL     1      49.263   2.747 101.101  1.00  0.00     0.196 A 
HETATM    7  C7  UNL     1      46.589   0.394 102.471  1.00  0.00     0.023 A 
HETATM    8  C8  UNL     1      46.891   0.459 103.835  1.00  0.00     0.026 A 
HETATM    9  C9  UNL     1      47.974   1.202 104.306  1.00  0.00     0.026 A 
HETATM   10  C10 UNL     1      48.773   1.958 103.442  1.00  0.00     0.023 A 
HETATM   11  C11 UNL     1      49.703   3.495  98.771  1.00  0.00     0.016 A 
HETATM   12  C12 UNL     1      49.420   3.468  97.405  1.00  0.00     0.001 A 
HETATM   13  C13 UNL     1      48.394   2.657  96.924  1.00  0.00     0.001 A 
HETATM   14  C14 UNL     1      47.652   1.875  97.810  1.00  0.00     0.016 A 
HETATM   15  O1  UNL     1      46.315   0.298  99.641  1.00  0.00    -0.287 OA
HETATM   16  O2  UNL     1      50.160   3.491 101.492  1.00  0.00    -0.287 OA
ENDROOT
BRANCH   7  17
HETATM   17  N1  UNL     1      45.436  -0.286 102.027  1.00  0.00    -0.292 NA
HETATM   18  H7  UNL     1      45.621  -0.711 101.105  1.00  0.00     0.127 HD
BRANCH  17  19
HETATM   19  C15 UNL     1      44.789  -1.231 102.942  1.00  0.00     0.097 C 
BRANCH  19  20
HETATM   20  C16 UNL     1      45.277  -2.656 102.651  1.00  0.00     0.053 C 
BRANCH  20  21
HETATM   21  C17 UNL     1      45.939  -3.279 103.856  1.00  0.00    -0.057 A 
HETATM   22  C18 UNL     1      46.116  -2.538 105.033  1.00  0.00     0.010 A 
HETATM   23  C19 UNL     1      46.707  -3.120 106.156  1.00  0.00     0.037 A 
HETATM   24  C20 UNL     1      47.116  -4.450 106.102  1.00  0.00     0.065 A 
HETATM   25  C21 UNL     1      46.945  -5.200 104.944  1.00  0.00     0.037 A 
HETATM   26  C22 UNL     1      46.356  -4.618 103.822  1.00  0.00     0.010 A 
BRANCH  24  27
HETATM   27  O3  UNL     1      47.694  -5.060 107.175  1.00  0.00    -0.361 OA
HETATM   28  H16 UNL     1      48.647  -4.872 107.161  1.00  0.00     0.217 HD
ENDBRANCH  24  27
ENDBRANCH  20  21
ENDBRANCH  19  20
ENDBRANCH  17  19
ENDBRANCH   7  17
BRANCH  10  29
HETATM   29  N2  UNL     1      49.888   2.651 103.947  1.00  0.00    -0.292 NA
HETATM   30  H17 UNL     1      50.008   3.546 103.446  1.00  0.00     0.127 HD
BRANCH  29  31
HETATM   31  C23 UNL     1      50.018   2.847 105.395  1.00  0.00     0.097 C 
BRANCH  31  32
HETATM   32  C24 UNL     1      51.190   2.045 105.975  1.00  0.00     0.053 C 
BRANCH  32  33
HETATM   33  C25 UNL     1      50.727   0.762 106.622  1.00  0.00    -0.057 A 
HETATM   34  C26 UNL     1      50.495   0.704 108.004  1.00  0.00     0.010 A 
HETATM   35  C27 UNL     1      50.046  -0.478 108.599  1.00  0.00     0.037 A 
HETATM   36  C28 UNL     1      49.829  -1.602 107.807  1.00  0.00     0.065 A 
HETATM   37  C29 UNL     1      50.050  -1.560 106.437  1.00  0.00     0.037 A 
HETATM   38  C30 UNL     1      50.496  -0.381 105.843  1.00  0.00     0.010 A 
BRANCH  36  39
HETATM   39  O4  UNL     1      49.394  -2.777 108.346  1.00  0.00    -0.361 OA
HETATM   40  H26 UNL     1      48.444  -2.697 108.537  1.00  0.00     0.217 HD
ENDBRANCH  36  39
ENDBRANCH  32  33
ENDBRANCH  31  32
ENDBRANCH  29  31
ENDBRANCH  10  29
TORSDOF 10
ENDMDL
