MODEL 1
REMARK VINA RESULT:      -5.8      0.000      0.000
REMARK  19 active torsions:
REMARK  status: ('A' for Active; 'I' for Inactive)
REMARK    1  A    between atoms: C1_1  and  C2_2 
REMARK    2  A    between atoms: C1_1  and  C6_6 
REMARK    3  A    between atoms: C2_2  and  C3_3 
REMARK    4  A    between atoms: C3_3  and  C4_4 
REMARK    5  A    between atoms: C4_4  and  C16_19 
REMARK    6  A    between atoms: C5_5  and  C6_6 
REMARK    7  A    between atoms: C5_5  and  C7_7 
REMARK    8  A    between atoms: C7_7  and  C8_8 
REMARK    9  A    between atoms: C8_8  and  C9_9 
REMARK   10  A    between atoms: C9_9  and  C10_10 
REMARK   11  A    between atoms: C10_10  and  C11_11 
REMARK   12  A    between atoms: C11_11  and  C12_12 
REMARK   13  A    between atoms: C12_12  and  C13_13 
REMARK       I    between atoms: C13_13  and  N1_15 
REMARK   14  A    between atoms: N1_15  and  C14_16 
REMARK   15  A    between atoms: C14_16  and  C15_17 
REMARK   16  A    between atoms: C15_17  and  O2_18 
REMARK   17  A    between atoms: C16_19  and  C17_20 
REMARK   18  A    between atoms: C17_20  and  C18_21 
REMARK   19  A    between atoms: C18_21  and  C19_22 
ROOT
HETATM    1  C8  UNL     1      50.898   0.761 105.283  1.00  0.00     0.000 C 
ENDROOT
BRANCH   1   2
HETATM    2  C7  UNL     1      50.749  -0.672 105.804  1.00  0.00     0.000 C 
BRANCH   2   3
HETATM    3  C5  UNL     1      49.653  -0.888 106.851  1.00  0.00     0.000 C 
BRANCH   3   4
HETATM    4  C6  UNL     1      50.138  -1.020 108.298  1.00  0.00     0.000 C 
BRANCH   4   5
HETATM    5  C1  UNL     1      50.440   0.298 109.018  1.00  0.00     0.000 C 
BRANCH   5   6
HETATM    6  C2  UNL     1      51.925   0.644 109.185  1.00  0.00     0.000 C 
BRANCH   6   7
HETATM    7  C3  UNL     1      52.189   2.148 109.289  1.00  0.00     0.000 C 
BRANCH   7   8
HETATM    8  C4  UNL     1      52.638   2.781 107.966  1.00  0.00     0.000 C 
BRANCH   8   9
HETATM    9  C16 UNL     1      51.886   4.068 107.621  1.00  0.00     0.000 C 
BRANCH   9  10
HETATM   10  C17 UNL     1      52.432   4.777 106.375  1.00  0.00     0.000 C 
BRANCH  10  11
HETATM   11  C18 UNL     1      53.956   4.710 106.256  1.00  0.00    -0.000 C 
BRANCH  11  12
HETATM   12  C19 UNL     1      54.552   5.874 105.458  1.00  0.00    -0.005 C 
HETATM   13  C20 UNL     1      53.521   6.905 105.022  1.00  0.00     0.005 C 
ENDBRANCH  11  12
ENDBRANCH  10  11
ENDBRANCH   9  10
ENDBRANCH   8   9
ENDBRANCH   7   8
ENDBRANCH   6   7
ENDBRANCH   5   6
ENDBRANCH   4   5
ENDBRANCH   3   4
ENDBRANCH   2   3
ENDBRANCH   1   2
BRANCH   1  14
HETATM   14  C9  UNL     1      49.795   1.704 105.770  1.00  0.00     0.000 C 
BRANCH  14  15
HETATM   15  C10 UNL     1      49.226   2.529 104.614  1.00  0.00     0.000 C 
BRANCH  15  16
HETATM   16  C11 UNL     1      47.770   2.190 104.283  1.00  0.00     0.009 C 
BRANCH  16  17
HETATM   17  C12 UNL     1      46.971   3.383 103.761  1.00  0.00     0.103 C 
BRANCH  17  18
HETATM   18  C13 UNL     1      47.021   3.490 102.247  1.00  0.00     0.217 C 
HETATM   19  O1  UNL     1      47.582   4.398 101.647  1.00  0.00    -0.274 OA
HETATM   20  N1  UNL     1      46.359   2.451 101.621  1.00  0.00    -0.359 N 
HETATM   21  H28 UNL     1      46.169   1.627 102.176  1.00  0.00     0.162 HD
BRANCH  20  22
HETATM   22  C14 UNL     1      46.422   2.289 100.179  1.00  0.00     0.148 C 
BRANCH  22  23
HETATM   23  C15 UNL     1      47.575   1.384  99.752  1.00  0.00     0.183 C 
BRANCH  23  24
HETATM   24  O2  UNL     1      47.418   1.001  98.393  1.00  0.00    -0.399 OA
HETATM   25  H33 UNL     1      47.793   1.714  97.847  1.00  0.00     0.209 HD
ENDBRANCH  23  24
ENDBRANCH  22  23
ENDBRANCH  20  22
ENDBRANCH  17  18
ENDBRANCH  16  17
ENDBRANCH  15  16
ENDBRANCH  14  15
ENDBRANCH   1  14
TORSDOF 19
ENDMDL
