MODEL 1
REMARK VINA RESULT:      -6.7      0.000      0.000
REMARK  13 active torsions:
REMARK  status: ('A' for Active; 'I' for Inactive)
REMARK    1  A    between atoms: C1_1  and  C22_24 
REMARK    2  A    between atoms: N1_7  and  C14_16 
REMARK    3  A    between atoms: C8_9  and  C9_10 
REMARK    4  A    between atoms: C9_10  and  N2_11 
REMARK    5  A    between atoms: N2_11  and  C10_12 
REMARK    6  A    between atoms: N2_11  and  C11_13 
REMARK    7  A    between atoms: C14_16  and  C15_17 
REMARK    8  A    between atoms: C15_17  and  C16_18 
REMARK    9  A    between atoms: C16_18  and  C17_19 
REMARK   10  A    between atoms: C17_19  and  C18_20 
REMARK   11  A    between atoms: C18_20  and  C19_21 
REMARK   12  A    between atoms: C19_21  and  C20_22 
REMARK   13  A    between atoms: C24_27  and  N5_30 
ROOT
HETATM    1  C1  UNL     1      48.199   1.752 103.112  1.00  0.00    -0.022 A 
HETATM    2  C2  UNL     1      48.556   1.313 104.394  1.00  0.00     0.014 A 
HETATM    3  C3  UNL     1      49.338   2.091 105.257  1.00  0.00     0.031 A 
HETATM    4  C4  UNL     1      49.767   3.347 104.808  1.00  0.00     0.045 A 
HETATM    5  C5  UNL     1      49.432   3.830 103.541  1.00  0.00     0.001 A 
HETATM    6  C6  UNL     1      48.645   3.020 102.694  1.00  0.00     0.026 A 
HETATM    7  N1  UNL     1      50.530   4.320 105.416  1.00  0.00    -0.355 N 
HETATM    8  C7  UNL     1      50.686   5.395 104.580  1.00  0.00     0.101 A 
HETATM    9  C8  UNL     1      50.019   5.130 103.397  1.00  0.00    -0.002 A 
ENDROOT
BRANCH   1  10
HETATM   10  C22 UNL     1      47.382   0.916 102.226  1.00  0.00     0.009 A 
HETATM   11  C23 UNL     1      47.521   0.902 100.850  1.00  0.00     0.133 A 
HETATM   12  N3  UNL     1      46.779   0.147 100.009  1.00  0.00    -0.230 NA
HETATM   13  C24 UNL     1      45.865  -0.643 100.573  1.00  0.00     0.198 A 
HETATM   14  N4  UNL     1      45.616  -0.707 101.884  1.00  0.00    -0.230 NA
HETATM   15  C25 UNL     1      46.389   0.066 102.679  1.00  0.00     0.133 A 
BRANCH  13  16
HETATM   16  N5  UNL     1      45.080  -1.410  99.738  1.00  0.00    -0.271 NA
HETATM   17  H36 UNL     1      44.263  -1.725 100.240  1.00  0.00     0.127 HD
HETATM   18  H37 UNL     1      44.934  -0.917  98.869  1.00  0.00     0.127 HD
ENDBRANCH  13  16
ENDBRANCH   1  10
BRANCH   9  19
HETATM   19  C9  UNL     1      49.911   6.045 102.212  1.00  0.00     0.313 C 
BRANCH  19  20
HETATM   20  N2  UNL     1      50.844   5.650 101.144  1.00  0.00     0.091 N 
BRANCH  20  21
HETATM   21  C10 UNL     1      50.192   5.647  99.826  1.00  0.00     0.268 C 
HETATM   22  C13 UNL     1      49.574   4.295  99.485  1.00  0.00     0.037 C 
ENDBRANCH  20  21
BRANCH  20  23
HETATM   23  C11 UNL     1      52.088   6.443 101.128  1.00  0.00     0.268 C 
HETATM   24  C12 UNL     1      52.012   7.846 101.725  1.00  0.00     0.037 C 
ENDBRANCH  20  23
ENDBRANCH  19  20
ENDBRANCH   9  19
BRANCH   7  25
HETATM   25  C14 UNL     1      51.108   4.235 106.751  1.00  0.00     0.128 C 
BRANCH  25  26
HETATM   26  C15 UNL     1      52.132   3.106 106.857  1.00  0.00     0.020 C 
BRANCH  26  27
HETATM   27  C16 UNL     1      52.676   2.916 108.276  1.00  0.00     0.002 C 
BRANCH  27  28
HETATM   28  C17 UNL     1      52.000   1.771 109.034  1.00  0.00     0.000 C 
BRANCH  28  29
HETATM   29  C18 UNL     1      51.328   0.790 108.067  1.00  0.00     0.000 C 
BRANCH  29  30
HETATM   30  C19 UNL     1      50.247  -0.065 108.735  1.00  0.00    -0.000 C 
BRANCH  30  31
HETATM   31  C20 UNL     1      49.786  -1.272 107.912  1.00  0.00    -0.005 C 
HETATM   32  C21 UNL     1      50.304  -1.298 106.486  1.00  0.00     0.005 C 
ENDBRANCH  30  31
ENDBRANCH  29  30
ENDBRANCH  28  29
ENDBRANCH  27  28
ENDBRANCH  26  27
ENDBRANCH  25  26
ENDBRANCH   7  25
TORSDOF 13
ENDMDL
