MODEL 1
REMARK VINA RESULT:      -7.5      0.000      0.000
REMARK  13 active torsions:
REMARK  status: ('A' for Active; 'I' for Inactive)
REMARK    1  A    between atoms: C1_1  and  O2_7 
REMARK    2  A    between atoms: C2_2  and  C12_14 
REMARK    3  A    between atoms: C3_3  and  C6_8 
REMARK    4  A    between atoms: C6_8  and  C7_9 
REMARK    5  A    between atoms: C8_10  and  C9_11 
REMARK    6  A    between atoms: C9_11  and  C10_12 
REMARK    7  A    between atoms: C10_12  and  C11_13 
REMARK    8  A    between atoms: C11_13  and  C22_25 
REMARK    9  A    between atoms: C13_15  and  C14_16 
REMARK   10  A    between atoms: C14_16  and  C15_17 
REMARK   11  A    between atoms: C14_16  and  O3_24 
REMARK   12  A    between atoms: C15_17  and  C16_18 
REMARK   13  A    between atoms: C22_25  and  O5_27 
ROOT
HETATM    1  C1  UNL     1      47.961   2.598 102.235  1.00  0.00     0.133 C 
HETATM    2  C2  UNL     1      47.988   1.248 102.977  1.00  0.00     0.048 C 
HETATM    3  C3  UNL     1      47.857   1.628 104.474  1.00  0.00     0.069 C 
HETATM    4  C4  UNL     1      47.004   2.879 104.379  1.00  0.00     0.134 C 
HETATM    5  C5  UNL     1      46.973   3.474 102.996  1.00  0.00     0.111 C 
HETATM    6  O1  UNL     1      46.375   3.352 105.319  1.00  0.00    -0.297 OA
ENDROOT
BRANCH   2   7
HETATM    7  C12 UNL     1      46.919   0.236 102.598  1.00  0.00    -0.020 C 
HETATM    8  C13 UNL     1      46.167  -0.523 103.412  1.00  0.00     0.001 C 
BRANCH   8   9
HETATM    9  C14 UNL     1      45.139  -1.513 102.929  1.00  0.00     0.145 C 
BRANCH   9  10
HETATM   10  C15 UNL     1      45.432  -1.962 101.488  1.00  0.00     0.074 C 
BRANCH  10  11
HETATM   11  C16 UNL     1      46.251  -3.234 101.435  1.00  0.00    -0.056 A 
HETATM   12  C17 UNL     1      47.184  -3.438 100.409  1.00  0.00     0.007 A 
HETATM   13  C18 UNL     1      47.946  -4.608 100.368  1.00  0.00     0.001 A 
HETATM   14  C19 UNL     1      47.784  -5.581 101.353  1.00  0.00     0.000 A 
HETATM   15  C20 UNL     1      46.864  -5.385 102.380  1.00  0.00     0.001 A 
HETATM   16  C21 UNL     1      46.101  -4.217 102.422  1.00  0.00     0.007 A 
ENDBRANCH  10  11
ENDBRANCH   9  10
BRANCH   9  17
HETATM   17  O3  UNL     1      43.885  -0.834 102.981  1.00  0.00    -0.391 OA
HETATM   18  H27 UNL     1      43.279  -1.325 102.400  1.00  0.00     0.210 HD
ENDBRANCH   9  17
ENDBRANCH   8   9
ENDBRANCH   2   7
BRANCH   1  19
HETATM   19  O2  UNL     1      49.254   3.203 102.274  1.00  0.00    -0.394 OA
HETATM   20  H6  UNL     1      49.889   2.566 101.899  1.00  0.00     0.210 HD
ENDBRANCH   1  19
BRANCH   3  21
HETATM   21  C6  UNL     1      49.206   1.941 105.132  1.00  0.00     0.040 C 
BRANCH  21  22
HETATM   22  C7  UNL     1      50.184   0.805 104.998  1.00  0.00    -0.030 C 
HETATM   23  C8  UNL     1      50.609  -0.019 105.970  1.00  0.00    -0.031 C 
BRANCH  23  24
HETATM   24  C9  UNL     1      50.163  -0.042 107.405  1.00  0.00     0.027 C 
BRANCH  24  25
HETATM   25  C10 UNL     1      51.339   0.223 108.349  1.00  0.00     0.014 C 
BRANCH  25  26
HETATM   26  C11 UNL     1      51.634   1.714 108.503  1.00  0.00     0.110 C 
BRANCH  26  27
HETATM   27  C22 UNL     1      52.343   2.062 109.783  1.00  0.00     0.139 C 
HETATM   28  O4  UNL     1      52.650   3.187 110.147  1.00  0.00    -0.650 OA
BRANCH  27  29
HETATM   29  O5  UNL     1      52.692   0.988 110.514  1.00  0.00    -0.776 OA
HETATM   30  H28 UNL     1      51.934   0.857 111.121  1.00  0.00     0.167 HD
ENDBRANCH  27  29
ENDBRANCH  26  27
ENDBRANCH  25  26
ENDBRANCH  24  25
ENDBRANCH  23  24
ENDBRANCH  21  22
ENDBRANCH   3  21
TORSDOF 13
ENDMDL
