MODEL 1
REMARK VINA RESULT:      -7.5      0.000      0.000
REMARK  2 active torsions:
REMARK  status: ('A' for Active; 'I' for Inactive)
REMARK    1  A    between atoms: C3_3  and  O1_8 
REMARK    2  A    between atoms: C6_6  and  O2_10 
ROOT
HETATM    1  C1  UNL     1      51.406   0.938 108.626  1.00  0.00     0.059 A 
HETATM    2  C2  UNL     1      50.622   0.460 107.603  1.00  0.00     0.047 A 
HETATM    3  C3  UNL     1      50.512   1.172 106.435  1.00  0.00     0.086 A 
HETATM    4  C4  UNL     1      51.212   2.379 106.325  1.00  0.00     0.049 A 
HETATM    5  C5  UNL     1      52.002   2.887 107.321  1.00  0.00     0.006 A 
HETATM    6  C6  UNL     1      52.083   2.128 108.491  1.00  0.00     0.077 A 
HETATM    7 BR1  UNL     1      49.689  -1.198 107.820  1.00  0.00    -0.048 Br
HETATM    8  C9  UNL     1      52.757   4.107 107.215  1.00  0.00     0.314 A 
HETATM    9  N1  UNL     1      52.598   4.877 106.042  1.00  0.00     0.096 N 
HETATM   10  C10 UNL     1      53.592   5.938 105.957  1.00  0.00     0.302 C 
HETATM   11  C11 UNL     1      53.154   7.036 105.042  1.00  0.00     0.299 C 
HETATM   12  N2  UNL     1      52.216   6.671 104.048  1.00  0.00     0.086 N 
HETATM   13  C12 UNL     1      51.166   5.782 104.404  1.00  0.00     0.299 C 
HETATM   14  C13 UNL     1      51.282   5.448 105.865  1.00  0.00     0.302 C 
HETATM   15 CL1  UNL     1      51.462   3.028 106.783  1.00  0.00    -0.145 Cl
HETATM   16 CL2  UNL     1      51.463   3.031 106.781  1.00  0.00    -0.145 Cl
HETATM   17  H15 UNL     1      52.693   6.284 103.186  1.00  0.00     0.315 HD
HETATM   18  H20 UNL     1      51.931   4.274 106.412  1.00  0.00     0.145 HD
HETATM   19  H21 UNL     1      51.929   4.271 106.414  1.00  0.00     0.145 HD
ENDROOT
BRANCH   6  20
HETATM   20  O2  UNL     1      52.864   2.599 109.520  1.00  0.00    -0.355 OA
HETATM   21  C8  UNL     1      52.355   3.133 110.704  1.00  0.00     0.210 C 
ENDBRANCH   6  20
BRANCH   3  22
HETATM   22  O1  UNL     1      49.721   0.700 105.390  1.00  0.00    -0.355 OA
HETATM   23  C7  UNL     1      48.979   1.524 104.546  1.00  0.00     0.210 C 
ENDBRANCH   3  22
TORSDOF 2
ENDMDL
