MODEL 1
REMARK VINA RESULT:      -5.9      0.000      0.000
REMARK  8 active torsions:
REMARK  status: ('A' for Active; 'I' for Inactive)
REMARK    1  A    between atoms: C7_7  and  C12_16 
REMARK    2  A    between atoms: C8_8  and  C10_12 
REMARK    3  A    between atoms: C9_9  and  N1_11 
REMARK    4  A    between atoms: C10_12  and  O2_13 
REMARK    5  A    between atoms: O2_13  and  C11_15 
REMARK    6  A    between atoms: C12_16  and  C13_17 
REMARK    7  A    between atoms: C13_17  and  O4_18 
REMARK    8  A    between atoms: O4_18  and  C14_20 
ROOT
HETATM    1  C12 UNL     1      47.391   1.859 102.738  1.00  0.00     0.205 C 
HETATM    2  C17 UNL     1      46.892   2.437 103.995  1.00  0.00     0.075 C 
HETATM    3  N2  UNL     1      46.504   2.912 104.981  1.00  0.00    -0.196 NA
ENDROOT
BRANCH   1   4
HETATM    4  C7  UNL     1      48.942   1.774 102.691  1.00  0.00     0.091 C 
HETATM    5  C4  UNL     1      49.532   1.868 104.092  1.00  0.00    -0.012 A 
HETATM    6  C3  UNL     1      49.727   0.744 104.908  1.00  0.00     0.034 A 
HETATM    7  C5  UNL     1      49.861   3.132 104.588  1.00  0.00     0.084 A 
HETATM    8  C2  UNL     1      50.212   0.906 106.207  1.00  0.00     0.034 A 
HETATM    9  C1  UNL     1      50.503   2.176 106.705  1.00  0.00     0.026 A 
HETATM   10 CL1  UNL     1      50.448  -0.474 107.206  1.00  0.00    -0.084 Cl
HETATM   11  C6  UNL     1      50.325   3.295 105.892  1.00  0.00     0.039 A 
HETATM   12  O1  UNL     1      49.749   4.252 103.802  1.00  0.00    -0.298 OA
HETATM   13  C9  UNL     1      49.858   4.080 102.421  1.00  0.00     0.134 C 
HETATM   14  C8  UNL     1      49.539   2.901 101.843  1.00  0.00     0.073 C 
BRANCH  13  15
HETATM   15  N1  UNL     1      50.307   5.210 101.788  1.00  0.00    -0.282 NA
HETATM   16  H5  UNL     1      50.939   5.021 101.011  1.00  0.00     0.126 HD
HETATM   17  H6  UNL     1      50.663   5.904 102.441  1.00  0.00     0.126 HD
ENDBRANCH  13  15
BRANCH  14  18
HETATM   18  C10 UNL     1      49.734   2.570 100.405  1.00  0.00     0.293 C 
HETATM   19  O3  UNL     1      50.357   1.579 100.047  1.00  0.00    -0.259 OA
BRANCH  18  20
HETATM   20  O2  UNL     1      49.184   3.487  99.572  1.00  0.00    -0.318 OA
BRANCH  20  21
HETATM   21  C11 UNL     1      47.749   3.489  99.502  1.00  0.00     0.174 C 
HETATM   22  C16 UNL     1      47.258   2.239  98.796  1.00  0.00     0.034 C 
ENDBRANCH  20  21
ENDBRANCH  18  20
ENDBRANCH  14  18
ENDBRANCH   1   4
BRANCH   1  23
HETATM   23  C13 UNL     1      46.753   0.501 102.543  1.00  0.00     0.277 C 
HETATM   24  O5  UNL     1      46.510   0.033 101.436  1.00  0.00    -0.264 OA
BRANCH  23  25
HETATM   25  O4  UNL     1      46.537  -0.137 103.724  1.00  0.00    -0.321 OA
BRANCH  25  26
HETATM   26  C14 UNL     1      45.854  -1.398 103.648  1.00  0.00     0.174 C 
HETATM   27  C15 UNL     1      46.298  -2.300 104.783  1.00  0.00     0.034 C 
ENDBRANCH  25  26
ENDBRANCH  23  25
ENDBRANCH   1  23
TORSDOF 8
ENDMDL
