MODEL 1
REMARK VINA RESULT:      -7.4      0.000      0.000
REMARK  9 active torsions:
REMARK  status: ('A' for Active; 'I' for Inactive)
REMARK    1  A    between atoms: C1_1  and  C2_2 
REMARK    2  A    between atoms: C2_2  and  C3_3 
REMARK    3  A    between atoms: C2_2  and  C4_4 
REMARK    4  A    between atoms: C3_3  and  C6_9 
REMARK    5  A    between atoms: C4_4  and  C5_5 
REMARK       I    between atoms: C5_5  and  N1_6 
REMARK    6  A    between atoms: N1_6  and  O2_8 
REMARK    7  A    between atoms: C6_9  and  C7_10 
REMARK    8  A    between atoms: C7_10  and  C8_11 
REMARK    9  A    between atoms: C14_18  and  C15_21 
REMARK       I    between atoms: C15_21  and  N4_22 
ROOT
HETATM    1  C2  UNL     1      48.561   3.215 103.482  1.00  0.00     0.074 C 
ENDROOT
BRANCH   1   2
HETATM    2  C1  UNL     1      49.393   4.409 103.143  1.00  0.00     0.177 A 
HETATM    3  N2  UNL     1      49.409   5.130 102.048  1.00  0.00    -0.199 NA
HETATM    4  C14 UNL     1      50.378   6.076 102.327  1.00  0.00     0.246 A 
HETATM    5  N3  UNL     1      50.930   5.944 103.550  1.00  0.00    -0.101 NA
HETATM    6  O3  UNL     1      50.273   4.839 104.090  1.00  0.00    -0.195 OA
BRANCH   4   7
HETATM    7  C15 UNL     1      50.781   7.137 101.392  1.00  0.00     0.289 C 
HETATM    8  N4  UNL     1      50.921   8.386 101.944  1.00  0.00    -0.363 N 
HETATM    9  H23 UNL     1      51.210   9.149 101.349  1.00  0.00     0.159 HD
HETATM   10  H24 UNL     1      50.770   8.536 102.933  1.00  0.00     0.159 HD
HETATM   11  O4  UNL     1      50.985   6.965 100.193  1.00  0.00    -0.264 OA
ENDBRANCH   4   7
ENDBRANCH   1   2
BRANCH   1  12
HETATM   12  C3  UNL     1      48.999   2.621 104.839  1.00  0.00     0.013 C 
BRANCH  12  13
HETATM   13  C6  UNL     1      49.746   1.287 104.693  1.00  0.00     0.001 C 
BRANCH  13  14
HETATM   14  C7  UNL     1      51.048   1.292 105.502  1.00  0.00     0.005 C 
BRANCH  14  15
HETATM   15  C8  UNL     1      50.892   1.908 106.907  1.00  0.00    -0.014 C 
HETATM   16  C9  UNL     1      50.298   0.880 107.894  1.00  0.00     0.004 C 
HETATM   17  C10 UNL     1      51.373   0.179 108.715  1.00  0.00     0.000 C 
HETATM   18  C11 UNL     1      52.175   1.169 109.562  1.00  0.00     0.000 C 
HETATM   19  C12 UNL     1      52.266   2.563 108.942  1.00  0.00     0.000 C 
HETATM   20  C13 UNL     1      52.218   2.505 107.421  1.00  0.00     0.004 C 
ENDBRANCH  14  15
ENDBRANCH  13  14
ENDBRANCH  12  13
ENDBRANCH   1  12
BRANCH   1  21
HETATM   21  C4  UNL     1      48.700   2.176 102.355  1.00  0.00     0.118 C 
BRANCH  21  22
HETATM   22  C5  UNL     1      47.362   1.726 101.818  1.00  0.00     0.241 C 
HETATM   23  N1  UNL     1      46.678   2.713 101.145  1.00  0.00    -0.237 N 
HETATM   24  H6  UNL     1      46.852   3.699 101.313  1.00  0.00     0.197 HD
HETATM   25  O1  UNL     1      46.898   0.598 101.968  1.00  0.00    -0.271 OA
BRANCH  23  26
HETATM   26  O2  UNL     1      45.362   2.373 100.755  1.00  0.00    -0.287 OA
HETATM   27  H7  UNL     1      44.836   3.139 101.078  1.00  0.00     0.244 HD
ENDBRANCH  23  26
ENDBRANCH  21  22
ENDBRANCH   1  21
TORSDOF 9
ENDMDL
