MODEL 1
REMARK VINA RESULT:      -7.8      0.000      0.000
REMARK  10 active torsions:
REMARK  status: ('A' for Active; 'I' for Inactive)
REMARK    1  A    between atoms: C1_1  and  C2_2 
REMARK       I    between atoms: C1_1  and  N1_4 
REMARK    2  A    between atoms: N1_4  and  C11_15 
REMARK    3  A    between atoms: N3_6  and  C9_13 
REMARK    4  A    between atoms: C9_13  and  C10_14 
REMARK    5  A    between atoms: C10_14  and  C16_22 
REMARK    6  A    between atoms: C11_15  and  C12_16 
REMARK    7  A    between atoms: C11_15  and  C13_17 
REMARK       I    between atoms: C13_17  and  N4_18 
REMARK    8  A    between atoms: C16_22  and  C17_23 
REMARK    9  A    between atoms: C17_23  and  C18_24 
REMARK   10  A    between atoms: C18_24  and  O3_26 
ROOT
HETATM    1  C2  UNL     1      51.012   2.144 106.067  1.00  0.00     0.157 A 
HETATM    2  N2  UNL     1      51.621   3.323 105.845  1.00  0.00    -0.166 NA
HETATM    3  N3  UNL     1      52.267   3.589 106.993  1.00  0.00    -0.268 N 
HETATM    4  C3  UNL     1      52.100   2.637 107.966  1.00  0.00     0.065 A 
HETATM    5  C4  UNL     1      51.266   1.678 107.395  1.00  0.00     0.028 A 
HETATM    6  C5  UNL     1      52.583   2.536 109.280  1.00  0.00     0.032 A 
HETATM    7  C6  UNL     1      52.192   1.423 110.030  1.00  0.00     0.002 A 
HETATM    8  C7  UNL     1      51.344   0.458 109.492  1.00  0.00     0.001 A 
HETATM    9  C8  UNL     1      50.869   0.573 108.181  1.00  0.00     0.016 A 
ENDROOT
BRANCH   1  10
HETATM   10  C1  UNL     1      50.213   1.499 105.012  1.00  0.00     0.273 C 
HETATM   11  O1  UNL     1      50.113   0.279 104.892  1.00  0.00    -0.266 OA
HETATM   12  N1  UNL     1      49.558   2.373 104.165  1.00  0.00    -0.342 N 
HETATM   13  H1  UNL     1      49.826   3.348 104.203  1.00  0.00     0.163 HD
BRANCH  12  14
HETATM   14  C11 UNL     1      48.940   1.897 102.931  1.00  0.00     0.184 C 
BRANCH  14  15
HETATM   15  C12 UNL     1      47.382   1.892 103.001  1.00  0.00    -0.022 C 
HETATM   16  C14 UNL     1      46.913   2.987 103.983  1.00  0.00     0.017 C 
HETATM   17  C15 UNL     1      46.871   0.538 103.532  1.00  0.00     0.017 C 
HETATM   18  C19 UNL     1      46.726   2.156 101.631  1.00  0.00     0.017 C 
ENDBRANCH  14  15
BRANCH  14  19
HETATM   19  C13 UNL     1      49.503   2.788 101.804  1.00  0.00     0.239 C 
HETATM   20  N4  UNL     1      49.546   4.129 102.064  1.00  0.00    -0.368 N 
HETATM   21  H11 UNL     1      48.888   4.533 102.720  1.00  0.00     0.159 HD
HETATM   22  H12 UNL     1      49.803   4.712 101.276  1.00  0.00     0.159 HD
HETATM   23  O2  UNL     1      49.921   2.347 100.735  1.00  0.00    -0.271 OA
ENDBRANCH  14  19
ENDBRANCH  12  14
ENDBRANCH   1  10
BRANCH   3  24
HETATM   24  C9  UNL     1      53.039   4.816 107.091  1.00  0.00     0.151 C 
BRANCH  24  25
HETATM   25  C10 UNL     1      54.243   4.806 106.152  1.00  0.00     0.022 C 
BRANCH  25  26
HETATM   26  C16 UNL     1      54.254   5.982 105.173  1.00  0.00     0.012 C 
BRANCH  26  27
HETATM   27  C17 UNL     1      52.933   6.751 105.134  1.00  0.00     0.110 C 
BRANCH  27  28
HETATM   28  C18 UNL     1      52.125   6.396 103.915  1.00  0.00     0.139 C 
HETATM   29  O4  UNL     1      52.405   6.619 102.749  1.00  0.00    -0.650 OA
BRANCH  28  30
HETATM   30  O3  UNL     1      50.991   5.743 104.236  1.00  0.00    -0.776 OA
HETATM   31  H26 UNL     1      50.638   5.437 103.374  1.00  0.00     0.167 HD
ENDBRANCH  28  30
ENDBRANCH  27  28
ENDBRANCH  26  27
ENDBRANCH  25  26
ENDBRANCH  24  25
ENDBRANCH   3  24
TORSDOF 10
ENDMDL
