MODEL 1
REMARK VINA RESULT:      -8.1      0.000      0.000
REMARK  7 active torsions:
REMARK  status: ('A' for Active; 'I' for Inactive)
REMARK    1  A    between atoms: C1_1  and  C2_3 
REMARK    2  A    between atoms: C1_1  and  C15_18 
REMARK    3  A    between atoms: N1_5  and  C10_12 
REMARK    4  A    between atoms: C10_12  and  C11_13 
REMARK    5  A    between atoms: C11_13  and  C12_14 
REMARK    6  A    between atoms: C12_14  and  C13_15 
REMARK    7  A    between atoms: C13_15  and  C14_16 
ROOT
HETATM    1  C2  UNL     1      49.430   2.472 105.379  1.00  0.00     0.043 A 
HETATM    2  C3  UNL     1      50.300   3.375 105.969  1.00  0.00     0.107 A 
HETATM    3  N1  UNL     1      51.110   2.698 106.843  1.00  0.00    -0.355 N 
HETATM    4  C4  UNL     1      50.790   1.358 106.850  1.00  0.00     0.045 A 
HETATM    5  C5  UNL     1      49.737   1.188 105.944  1.00  0.00     0.006 A 
HETATM    6  C6  UNL     1      51.328   0.283 107.577  1.00  0.00     0.030 A 
HETATM    7  C7  UNL     1      50.788  -0.990 107.374  1.00  0.00     0.002 A 
HETATM    8  C8  UNL     1      49.744  -1.186 106.477  1.00  0.00     0.001 A 
HETATM    9  C9  UNL     1      49.212  -0.110 105.760  1.00  0.00     0.015 A 
ENDROOT
BRANCH   1  10
HETATM   10  C1  UNL     1      48.401   2.772 104.386  1.00  0.00     0.195 C 
HETATM   11  O1  UNL     1      47.226   2.996 104.665  1.00  0.00    -0.287 OA
BRANCH  10  12
HETATM   12  C15 UNL     1      48.796   2.843 102.961  1.00  0.00     0.026 A 
HETATM   13  C16 UNL     1      48.567   1.691 102.201  1.00  0.00     0.018 A 
HETATM   14  C17 UNL     1      48.889   1.689 100.850  1.00  0.00     0.026 A 
HETATM   15  C18 UNL     1      49.443   2.830 100.263  1.00  0.00     0.045 A 
HETATM   16  C19 UNL     1      49.704   4.005 101.019  1.00  0.00    -0.003 A 
HETATM   17 CL1  UNL     1      49.798   2.730  98.569  1.00  0.00    -0.083 Cl
HETATM   18  C20 UNL     1      49.382   4.009 102.403  1.00  0.00    -0.010 A 
HETATM   19  C21 UNL     1      50.275   5.175 100.462  1.00  0.00     0.014 A 
HETATM   20  C24 UNL     1      49.666   5.171 103.164  1.00  0.00     0.013 A 
HETATM   21  C23 UNL     1      50.231   6.305 102.586  1.00  0.00     0.001 A 
HETATM   22  C22 UNL     1      50.533   6.310 101.233  1.00  0.00     0.001 A 
ENDBRANCH  10  12
ENDBRANCH   1  10
BRANCH   3  23
HETATM   23  C10 UNL     1      52.164   3.323 107.630  1.00  0.00     0.128 C 
BRANCH  23  24
HETATM   24  C11 UNL     1      52.667   4.615 106.988  1.00  0.00     0.020 C 
BRANCH  24  25
HETATM   25  C12 UNL     1      54.016   4.455 106.282  1.00  0.00     0.004 C 
BRANCH  25  26
HETATM   26  C13 UNL     1      54.502   5.740 105.608  1.00  0.00     0.031 C 
BRANCH  26  27
HETATM   27  C14 UNL     1      53.337   6.594 105.133  1.00  0.00     0.222 C 
HETATM   28  F1  UNL     1      53.169   6.416 103.797  1.00  0.00    -0.255 F 
ENDBRANCH  26  27
ENDBRANCH  25  26
ENDBRANCH  24  25
ENDBRANCH  23  24
ENDBRANCH   3  23
TORSDOF 7
ENDMDL
