MODEL 1
REMARK VINA RESULT:      -8.7      0.000      0.000
REMARK  5 active torsions:
REMARK  status: ('A' for Active; 'I' for Inactive)
REMARK    1  A    between atoms: C7_7  and  C14_15 
REMARK    2  A    between atoms: C8_8  and  N1_9 
REMARK    3  A    between atoms: C9_10  and  C10_11 
REMARK    4  A    between atoms: C10_11  and  C11_12 
REMARK    5  A    between atoms: C11_12  and  C12_13 
REMARK       I    between atoms: C14_15  and  N2_17 
ROOT
HETATM    1  C1  UNL     1      50.490   0.652 107.664  1.00  0.00     0.015 A 
HETATM    2  C2  UNL     1      50.751   1.820 106.973  1.00  0.00     0.008 A 
HETATM    3  C3  UNL     1      51.657   2.708 107.506  1.00  0.00     0.045 A 
HETATM    4  C4  UNL     1      52.281   2.412 108.714  1.00  0.00     0.030 A 
HETATM    5  C5  UNL     1      52.021   1.248 109.401  1.00  0.00     0.002 A 
HETATM    6  C6  UNL     1      51.116   0.370 108.860  1.00  0.00     0.001 A 
HETATM    7  C7  UNL     1      50.280   2.351 105.776  1.00  0.00     0.060 A 
HETATM    8  C8  UNL     1      50.924   3.547 105.634  1.00  0.00     0.109 A 
HETATM    9  N1  UNL     1      51.749   3.757 106.673  1.00  0.00    -0.355 N 
HETATM   10  C9  UNL     1      52.622   4.890 106.928  1.00  0.00     0.128 A 
HETATM   11 CL1  UNL     1      51.013   3.552 106.699  1.00  0.00    -0.145 Cl
HETATM   12  H28 UNL     1      49.804   3.142 106.200  1.00  0.00     0.145 HD
ENDROOT
BRANCH   7  13
HETATM   13  C14 UNL     1      49.304   1.700 104.917  1.00  0.00     0.256 C 
HETATM   14  O1  UNL     1      48.998   0.470 105.097  1.00  0.00    -0.267 OA
HETATM   15  N2  UNL     1      48.675   2.416 103.866  1.00  0.00    -0.345 N 
HETATM   16  C15 UNL     1      47.696   1.837 102.972  1.00  0.00     0.156 C 
HETATM   17  C18 UNL     1      49.016   3.806 103.662  1.00  0.00     0.156 C 
HETATM   18  C16 UNL     1      46.887   2.906 102.275  1.00  0.00     0.291 C 
HETATM   19  N3  UNL     1      47.727   3.849 101.568  1.00  0.00     0.087 N 
HETATM   20  C17 UNL     1      49.004   4.060 102.171  1.00  0.00     0.291 C 
HETATM   21  C19 UNL     1      47.807   3.553 100.155  1.00  0.00     0.310 C 
ENDBRANCH   7  13
BRANCH  10  22
HETATM   22  C10 UNL     1      53.983   4.717 106.363  1.00  0.00     0.020 C 
BRANCH  22  23
HETATM   23  C11 UNL     1      54.273   5.814 105.380  1.00  0.00     0.001 C 
BRANCH  23  24
HETATM   24  C12 UNL     1      53.071   6.710 105.238  1.00  0.00    -0.004 C 
HETATM   25  C13 UNL     1      52.625   6.763 103.766  1.00  0.00     0.005 C 
ENDBRANCH  23  24
ENDBRANCH  22  23
ENDBRANCH  10  22
TORSDOF 5
ENDMDL
