MODEL 1
REMARK VINA RESULT:      -8.6      0.000      0.000
REMARK  5 active torsions:
REMARK  status: ('A' for Active; 'I' for Inactive)
REMARK       I    between atoms: N1_1  and  C1_2 
REMARK       I    between atoms: C1_2  and  N2_3 
REMARK    1  A    between atoms: C2_5  and  C7_10 
REMARK    2  A    between atoms: C13_18  and  C15_20 
REMARK    3  A    between atoms: C18_23  and  C21_26 
REMARK    4  A    between atoms: C25_30  and  C27_32 
REMARK    5  A    between atoms: C27_32  and  O2_33 
ROOT
HETATM    1  N1  UNL     1      45.183   2.423  97.116  1.00  0.00    -0.324 N 
HETATM    2  C1  UNL     1      45.294   1.654  98.294  1.00  0.00     0.342 C 
HETATM    3  N2  UNL     1      46.242   2.025  99.280  1.00  0.00    -0.197 N 
HETATM    4  O1  UNL     1      44.609   0.660  98.533  1.00  0.00    -0.245 OA
HETATM    5  C2  UNL     1      43.970   2.172  96.315  1.00  0.00     0.122 C 
HETATM    6  C3  UNL     1      44.094   2.450  94.801  1.00  0.00     0.030 C 
HETATM    7  C4  UNL     1      45.508   2.791  94.366  1.00  0.00     0.004 C 
HETATM    8  C5  UNL     1      46.022   3.914  95.242  1.00  0.00     0.020 C 
HETATM    9  C6  UNL     1      46.116   3.478  96.701  1.00  0.00     0.128 C 
HETATM   10  N3  UNL     1      46.985   3.159  99.266  1.00  0.00     0.014 NA
HETATM   11  N4  UNL     1      47.743   3.187 100.354  1.00  0.00    -0.157 NA
HETATM   12  C13 UNL     1      47.475   2.069 101.096  1.00  0.00     0.102 A 
HETATM   13  C14 UNL     1      46.525   1.325 100.443  1.00  0.00     0.153 A 
ENDROOT
BRANCH  12  14
HETATM   14  C15 UNL     1      48.114   1.768 102.366  1.00  0.00    -0.005 A 
HETATM   15  C16 UNL     1      49.453   2.124 102.572  1.00  0.00     0.014 A 
HETATM   16  C17 UNL     1      50.092   1.846 103.787  1.00  0.00     0.013 A 
HETATM   17  C18 UNL     1      49.414   1.205 104.834  1.00  0.00    -0.026 A 
HETATM   18  C19 UNL     1      48.073   0.851 104.621  1.00  0.00     0.013 A 
HETATM   19  C20 UNL     1      47.431   1.128 103.408  1.00  0.00     0.014 A 
BRANCH  17  20
HETATM   20  C21 UNL     1      50.086   0.914 106.112  1.00  0.00    -0.025 A 
HETATM   21  C22 UNL     1      49.960  -0.341 106.727  1.00  0.00     0.012 A 
HETATM   22  C23 UNL     1      50.600  -0.617 107.937  1.00  0.00     0.002 A 
HETATM   23  C24 UNL     1      51.378   0.360 108.556  1.00  0.00     0.009 A 
HETATM   24  C25 UNL     1      51.518   1.627 107.978  1.00  0.00    -0.034 A 
HETATM   25  C26 UNL     1      50.875   1.885 106.753  1.00  0.00     0.021 A 
BRANCH  24  26
HETATM   26  C27 UNL     1      52.390   2.668 108.623  1.00  0.00     0.202 C 
BRANCH  26  27
HETATM   27  O2  UNL     1      52.739   2.273 109.944  1.00  0.00    -0.396 OA
HETATM   28  H26 UNL     1      52.318   1.411 110.096  1.00  0.00     0.209 HD
ENDBRANCH  26  27
ENDBRANCH  24  26
ENDBRANCH  17  20
ENDBRANCH  12  14
BRANCH   5  29
HETATM   29  C7  UNL     1      42.761   2.872  96.934  1.00  0.00    -0.035 A 
HETATM   30  C8  UNL     1      41.466   2.393  96.672  1.00  0.00     0.009 A 
HETATM   31  C9  UNL     1      40.347   3.007  97.235  1.00  0.00     0.001 A 
HETATM   32  C10 UNL     1      40.504   4.109  98.072  1.00  0.00     0.000 A 
HETATM   33  C11 UNL     1      41.779   4.590  98.353  1.00  0.00     0.001 A 
HETATM   34  C12 UNL     1      42.901   3.976  97.791  1.00  0.00     0.009 A 
ENDBRANCH   5  29
TORSDOF 5
ENDMDL
