MODEL 1
REMARK VINA RESULT:      -7.9      0.000      0.000
REMARK  8 active torsions:
REMARK  status: ('A' for Active; 'I' for Inactive)
REMARK    1  A    between atoms: C1_1  and  C2_2 
REMARK       I    between atoms: C1_1  and  N1_4 
REMARK    2  A    between atoms: N1_4  and  C3_5 
REMARK    3  A    between atoms: C3_5  and  C4_6 
REMARK    4  A    between atoms: C3_5  and  C5_7 
REMARK       I    between atoms: C5_7  and  N2_8 
REMARK    5  A    between atoms: N4_13  and  C14_20 
REMARK    6  A    between atoms: C14_20  and  C15_21 
REMARK    7  A    between atoms: C15_21  and  C16_22 
REMARK    8  A    between atoms: C16_22  and  C17_23 
ROOT
HETATM    1  C2  UNL     1      50.487   2.453 105.767  1.00  0.00     0.157 A 
HETATM    2  N3  UNL     1      51.181   3.601 105.651  1.00  0.00    -0.166 NA
HETATM    3  N4  UNL     1      51.925   3.666 106.765  1.00  0.00    -0.268 N 
HETATM    4  C8  UNL     1      51.757   2.604 107.617  1.00  0.00     0.065 A 
HETATM    5  C9  UNL     1      50.824   1.780 106.987  1.00  0.00     0.028 A 
HETATM    6  C10 UNL     1      52.323   2.290 108.861  1.00  0.00     0.032 A 
HETATM    7  C11 UNL     1      51.932   1.095 109.471  1.00  0.00     0.002 A 
HETATM    8  C12 UNL     1      51.016   0.245 108.857  1.00  0.00     0.001 A 
HETATM    9  C13 UNL     1      50.460   0.570 107.616  1.00  0.00     0.016 A 
ENDROOT
BRANCH   1  10
HETATM   10  C1  UNL     1      49.533   2.044 104.722  1.00  0.00     0.273 C 
HETATM   11  O1  UNL     1      48.837   1.032 104.798  1.00  0.00    -0.266 OA
HETATM   12  N1  UNL     1      49.495   2.863 103.614  1.00  0.00    -0.342 N 
HETATM   13  H1  UNL     1      50.218   3.565 103.489  1.00  0.00     0.163 HD
BRANCH  12  14
HETATM   14  C3  UNL     1      48.689   2.544 102.440  1.00  0.00     0.180 C 
BRANCH  14  15
HETATM   15  C4  UNL     1      47.898   3.779 101.950  1.00  0.00     0.009 C 
HETATM   16  C6  UNL     1      47.129   4.482 103.073  1.00  0.00     0.012 C 
HETATM   17  C7  UNL     1      48.782   4.786 101.210  1.00  0.00     0.012 C 
ENDBRANCH  14  15
BRANCH  14  18
HETATM   18  C5  UNL     1      49.658   1.959 101.394  1.00  0.00     0.238 C 
HETATM   19  N2  UNL     1      49.097   1.404 100.280  1.00  0.00    -0.368 N 
HETATM   20  H4  UNL     1      48.128   1.116 100.265  1.00  0.00     0.159 HD
HETATM   21  H5  UNL     1      49.732   0.940  99.642  1.00  0.00     0.159 HD
HETATM   22  O2  UNL     1      50.881   1.991 101.525  1.00  0.00    -0.271 OA
ENDBRANCH  14  18
ENDBRANCH  12  14
ENDBRANCH   1  10
BRANCH   3  23
HETATM   23  C14 UNL     1      52.803   4.803 106.942  1.00  0.00     0.154 C 
BRANCH  23  24
HETATM   24  C15 UNL     1      53.487   5.290 105.665  1.00  0.00     0.059 C 
BRANCH  24  25
HETATM   25  C16 UNL     1      53.061   6.690 105.223  1.00  0.00     0.171 C 
HETATM   26  F1  UNL     1      54.171   7.487 105.307  1.00  0.00    -0.249 F 
BRANCH  25  27
HETATM   27  C17 UNL     1      52.566   6.764 103.780  1.00  0.00     0.033 C 
HETATM   28  C18 UNL     1      51.083   6.431 103.683  1.00  0.00     0.008 C 
ENDBRANCH  25  27
ENDBRANCH  24  25
ENDBRANCH  23  24
ENDBRANCH   3  23
TORSDOF 8
ENDMDL
