MODEL 1
REMARK VINA RESULT:      -8.2      0.000      0.000
REMARK  7 active torsions:
REMARK  status: ('A' for Active; 'I' for Inactive)
REMARK    1  A    between atoms: C2_2  and  O1_7 
REMARK    2  A    between atoms: C5_5  and  N2_10 
REMARK    3  A    between atoms: C6_6  and  N1_9 
REMARK    4  A    between atoms: N3_11  and  C8_12 
REMARK    5  A    between atoms: C11_15  and  S1_18 
REMARK    6  A    between atoms: S1_18  and  N4_19 
REMARK    7  A    between atoms: N4_19  and  C14_22 
ROOT
HETATM    1  C8  UNL     1      48.780   1.471 103.899  1.00  0.00     0.079 A 
HETATM    2  C9  UNL     1      49.281   1.921 102.666  1.00  0.00     0.035 A 
HETATM    3  C10 UNL     1      48.554   1.744 101.487  1.00  0.00     0.027 A 
HETATM    4  C11 UNL     1      47.319   1.091 101.532  1.00  0.00     0.075 A 
HETATM    5  C12 UNL     1      46.800   0.638 102.746  1.00  0.00     0.027 A 
HETATM    6  C13 UNL     1      47.537   0.821 103.918  1.00  0.00     0.035 A 
ENDROOT
BRANCH   1   7
HETATM    7  N3  UNL     1      49.474   1.603 105.119  1.00  0.00    -0.150 NA
HETATM    8  N2  UNL     1      50.512   2.291 105.003  1.00  0.00    -0.148 NA
BRANCH   8   9
HETATM    9  C5  UNL     1      51.133   2.446 106.259  1.00  0.00     0.100 A 
HETATM   10  C4  UNL     1      51.059   1.409 107.203  1.00  0.00     0.045 A 
HETATM   11  C3  UNL     1      51.639   1.541 108.472  1.00  0.00    -0.026 A 
HETATM   12  C2  UNL     1      52.306   2.728 108.777  1.00  0.00     0.073 A 
HETATM   13  C7  UNL     1      51.557   0.421 109.465  1.00  0.00     0.051 C 
HETATM   14  C1  UNL     1      52.379   3.776 107.856  1.00  0.00     0.062 A 
HETATM   15  C6  UNL     1      51.753   3.666 106.608  1.00  0.00     0.039 A 
BRANCH  12  16
HETATM   16  O1  UNL     1      52.901   2.847 110.002  1.00  0.00    -0.360 OA
HETATM   17  H3  UNL     1      52.621   3.682 110.408  1.00  0.00     0.217 HD
ENDBRANCH  12  16
BRANCH  15  18
HETATM   18  N1  UNL     1      51.932   4.693 105.658  1.00  0.00    -0.301 NA
HETATM   19  H7  UNL     1      52.330   4.381 104.780  1.00  0.00     0.124 HD
HETATM   20  H8  UNL     1      52.418   5.496 106.056  1.00  0.00     0.124 HD
ENDBRANCH  15  18
ENDBRANCH   8   9
ENDBRANCH   1   7
BRANCH   4  21
HETATM   21  S1  UNL     1      46.385   0.885 100.030  1.00  0.00     0.247 S 
HETATM   22  O2  UNL     1      45.473   2.005  99.911  1.00  0.00    -0.205 OA
HETATM   23  O3  UNL     1      47.334   0.587  98.978  1.00  0.00    -0.205 OA
BRANCH  21  24
HETATM   24  N4  UNL     1      45.506  -0.522 100.300  1.00  0.00    -0.165 NA
HETATM   25  H13 UNL     1      44.542  -0.415  99.998  1.00  0.00     0.147 HD
BRANCH  24  26
HETATM   26  C14 UNL     1      46.055  -1.711  99.786  1.00  0.00     0.116 A 
HETATM   27  C15 UNL     1      47.042  -2.431 100.436  1.00  0.00     0.045 A 
HETATM   28  C16 UNL     1      47.521  -3.580  99.815  1.00  0.00     0.005 A 
HETATM   29  C17 UNL     1      47.000  -3.953  98.580  1.00  0.00     0.019 A 
HETATM   30  C18 UNL     1      46.013  -3.158  98.017  1.00  0.00     0.118 A 
HETATM   31  N5  UNL     1      45.524  -2.041  98.596  1.00  0.00    -0.248 NA
ENDBRANCH  24  26
ENDBRANCH  21  24
ENDBRANCH   4  21
TORSDOF 7
ENDMDL
