MODEL 1
REMARK VINA RESULT:      -8.0      0.000      0.000
REMARK  10 active torsions:
REMARK  status: ('A' for Active; 'I' for Inactive)
REMARK    1  A    between atoms: C2_2  and  C7_7 
REMARK    2  A    between atoms: C5_5  and  C8_10 
REMARK    3  A    between atoms: C7_7  and  O1_8 
REMARK    4  A    between atoms: C15_17  and  C22_27 
REMARK    5  A    between atoms: C16_18  and  O3_20 
REMARK    6  A    between atoms: O3_20  and  C18_21 
REMARK    7  A    between atoms: C18_21  and  O4_22 
REMARK    8  A    between atoms: O4_22  and  C19_23 
REMARK    9  A    between atoms: C19_23  and  C20_24 
REMARK   10  A    between atoms: C20_24  and  O5_25 
ROOT
HETATM    1  C8  UNL     1      49.101   1.688 104.337  1.00  0.00    -0.025 A 
HETATM    2  C9  UNL     1      49.441   2.443 103.202  1.00  0.00     0.024 A 
HETATM    3  C10 UNL     1      48.692   2.375 102.012  1.00  0.00    -0.024 A 
HETATM    4  C11 UNL     1      47.575   1.528 101.952  1.00  0.00    -0.023 A 
HETATM    5  C12 UNL     1      47.231   0.768 103.081  1.00  0.00     0.013 A 
HETATM    6  C13 UNL     1      47.983   0.849 104.255  1.00  0.00     0.013 A 
HETATM    7  C14 UNL     1      49.034   3.138 100.881  1.00  0.00     0.023 A 
HETATM    8  C15 UNL     1      48.299   3.091  99.674  1.00  0.00    -0.015 A 
HETATM    9  C16 UNL     1      47.177   2.228  99.638  1.00  0.00     0.079 A 
HETATM   10  C17 UNL     1      46.831   1.462 100.766  1.00  0.00     0.049 A 
ENDROOT
BRANCH   1  11
HETATM   11  C5  UNL     1      49.898   1.775 105.572  1.00  0.00    -0.026 A 
HETATM   12  C4  UNL     1      50.028   0.670 106.429  1.00  0.00     0.013 A 
HETATM   13  C3  UNL     1      50.784   0.751 107.603  1.00  0.00     0.019 A 
HETATM   14  C2  UNL     1      51.431   1.945 107.941  1.00  0.00     0.037 A 
HETATM   15  C1  UNL     1      51.313   3.054 107.098  1.00  0.00     0.019 A 
HETATM   16  C6  UNL     1      50.554   2.967 105.926  1.00  0.00     0.013 A 
BRANCH  14  17
HETATM   17  C7  UNL     1      52.222   1.986 109.194  1.00  0.00     0.176 C 
HETATM   18  O2  UNL     1      52.777   2.966 109.656  1.00  0.00    -0.646 OA
BRANCH  17  19
HETATM   19  O1  UNL     1      52.285   0.793 109.812  1.00  0.00    -0.773 OA
HETATM   20  H5  UNL     1      53.241   0.576 109.804  1.00  0.00     0.167 HD
ENDBRANCH  17  19
ENDBRANCH  14  17
ENDBRANCH   1  11
BRANCH   8  21
HETATM   21  C22 UNL     1      48.719   3.960  98.458  1.00  0.00    -0.009 C 
HETATM   22  C23 UNL     1      47.466   4.518  97.718  1.00  0.00     0.019 C 
HETATM   23  C24 UNL     1      47.864   5.340  96.478  1.00  0.00    -0.013 C 
HETATM   24  C25 UNL     1      48.683   4.455  95.524  1.00  0.00     0.009 C 
HETATM   25  C29 UNL     1      48.712   6.541  96.914  1.00  0.00     0.009 C 
HETATM   26  C26 UNL     1      49.964   3.968  96.221  1.00  0.00    -0.013 C 
HETATM   27  C27 UNL     1      49.586   3.134  97.457  1.00  0.00     0.019 C 
HETATM   28  C28 UNL     1      50.798   5.178  96.658  1.00  0.00     0.009 C 
HETATM   29  C30 UNL     1      49.981   6.046  97.621  1.00  0.00    -0.013 C 
HETATM   30  C31 UNL     1      49.584   5.208  98.848  1.00  0.00     0.019 C 
ENDBRANCH   8  21
BRANCH   9  31
HETATM   31  O3  UNL     1      46.472   2.182  98.465  1.00  0.00    -0.326 OA
BRANCH  31  32
HETATM   32  C18 UNL     1      46.226   0.921  97.853  1.00  0.00     0.344 C 
BRANCH  32  33
HETATM   33  O4  UNL     1      47.385   0.525  97.119  1.00  0.00    -0.364 OA
BRANCH  33  34
HETATM   34  C19 UNL     1      47.296   0.914  95.745  1.00  0.00     0.196 C 
BRANCH  34  35
HETATM   35  C20 UNL     1      47.493  -0.316  94.861  1.00  0.00     0.193 C 
BRANCH  35  36
HETATM   36  O5  UNL     1      48.329  -1.257  95.544  1.00  0.00    -0.394 OA
HETATM   37  C21 UNL     1      47.757  -2.559  95.549  1.00  0.00     0.201 C 
ENDBRANCH  35  36
ENDBRANCH  34  35
ENDBRANCH  33  34
ENDBRANCH  32  33
ENDBRANCH  31  32
ENDBRANCH   9  31
TORSDOF 10
ENDMDL
