MODEL 1
REMARK VINA RESULT:      -8.0      0.000      0.000
REMARK  4 active torsions:
REMARK  status: ('A' for Active; 'I' for Inactive)
REMARK    1  A    between atoms: C9_9  and  C15_15 
REMARK    2  A    between atoms: C17_17  and  C18_18 
REMARK    3  A    between atoms: C21_21  and  C24_24 
REMARK    4  A    between atoms: C24_24  and  O1_25 
ROOT
HETATM    1  C1  UNL     1      47.367   2.586  98.249  1.00  0.00     0.015 C 
HETATM    2  C2  UNL     1      47.137   1.113  97.961  1.00  0.00     0.015 C 
HETATM    3  C3  UNL     1      46.391   0.406  99.114  1.00  0.00    -0.020 C 
HETATM    4  C4  UNL     1      46.972   0.788 100.482  1.00  0.00    -0.043 A 
HETATM    5  C5  UNL     1      47.828   1.900 100.660  1.00  0.00    -0.042 A 
HETATM    6  C6  UNL     1      48.257   2.802  99.493  1.00  0.00    -0.020 C 
HETATM    7  C7  UNL     1      46.617   0.029 101.617  1.00  0.00     0.009 A 
HETATM    8  C8  UNL     1      47.115   0.321 102.887  1.00  0.00     0.012 A 
HETATM    9  C9  UNL     1      47.987   1.391 103.071  1.00  0.00    -0.030 A 
HETATM   10  C10 UNL     1      48.336   2.162 101.955  1.00  0.00     0.020 A 
HETATM   11  C11 UNL     1      48.147   4.302  99.855  1.00  0.00     0.020 C 
HETATM   12  C12 UNL     1      49.731   2.492  99.144  1.00  0.00     0.020 C 
HETATM   13  C13 UNL     1      44.895   0.795  99.087  1.00  0.00     0.020 C 
HETATM   14  C14 UNL     1      46.502  -1.112  98.844  1.00  0.00     0.020 C 
ENDROOT
BRANCH   9  15
HETATM   15  C15 UNL     1      48.540   1.695 104.411  1.00  0.00    -0.051 C 
HETATM   16  C16 UNL     1      47.716   2.616 105.270  1.00  0.00     0.049 C 
HETATM   17  C17 UNL     1      49.718   1.146 104.768  1.00  0.00     0.019 C 
BRANCH  17  18
HETATM   18  C18 UNL     1      50.396   1.372 106.046  1.00  0.00    -0.036 A 
HETATM   19  C19 UNL     1      51.156   2.532 106.233  1.00  0.00     0.012 A 
HETATM   20  C20 UNL     1      51.802   2.758 107.452  1.00  0.00     0.019 A 
HETATM   21  C21 UNL     1      51.691   1.829 108.493  1.00  0.00     0.037 A 
HETATM   22  C22 UNL     1      50.928   0.668 108.307  1.00  0.00     0.019 A 
HETATM   23  C23 UNL     1      50.282   0.443 107.087  1.00  0.00     0.012 A 
BRANCH  21  24
HETATM   24  C24 UNL     1      52.394   2.112 109.766  1.00  0.00     0.176 C 
HETATM   25  O2  UNL     1      52.686   3.215 110.191  1.00  0.00    -0.646 OA
BRANCH  24  26
HETATM   26  O1  UNL     1      52.704   0.997 110.453  1.00  0.00    -0.773 OA
HETATM   27  H28 UNL     1      52.691   1.288 111.389  1.00  0.00     0.167 HD
ENDBRANCH  24  26
ENDBRANCH  21  24
ENDBRANCH  17  18
ENDBRANCH   9  15
TORSDOF 4
ENDMDL
