MODEL 1
REMARK VINA RESULT:      -6.6      0.000      0.000
REMARK  11 active torsions:
REMARK  status: ('A' for Active; 'I' for Inactive)
REMARK    1  A    between atoms: C1_1  and  O1_7 
REMARK    2  A    between atoms: C2_2  and  C12_14 
REMARK    3  A    between atoms: C3_3  and  O2_13 
REMARK    4  A    between atoms: C5_5  and  C7_8 
REMARK    5  A    between atoms: C7_8  and  C8_9 
REMARK    6  A    between atoms: C8_9  and  C9_10 
REMARK    7  A    between atoms: C9_10  and  C10_11 
REMARK    8  A    between atoms: C12_14  and  C13_15 
REMARK    9  A    between atoms: C14_16  and  C15_17 
REMARK   10  A    between atoms: C15_17  and  C16_18 
REMARK   11  A    between atoms: C16_18  and  C17_19 
ROOT
HETATM    1  C1  UNL     1      53.776   5.264 105.681  1.00  0.00     0.075 A 
HETATM    2  C2  UNL     1      52.732   6.122 105.306  1.00  0.00     0.011 A 
HETATM    3  C3  UNL     1      51.555   6.083 106.063  1.00  0.00     0.075 A 
HETATM    4  C4  UNL     1      51.421   5.226 107.159  1.00  0.00     0.044 A 
HETATM    5  C5  UNL     1      52.472   4.373 107.520  1.00  0.00    -0.053 A 
HETATM    6  C6  UNL     1      53.657   4.402 106.774  1.00  0.00     0.044 A 
ENDROOT
BRANCH   2   7
HETATM    7  C12 UNL     1      52.864   7.032 104.106  1.00  0.00     0.071 C 
BRANCH   7   8
HETATM    8  C13 UNL     1      51.927   6.651 102.986  1.00  0.00    -0.020 C 
HETATM    9  C14 UNL     1      51.753   7.253 101.791  1.00  0.00    -0.087 C 
HETATM   10  C18 UNL     1      52.460   8.505 101.352  1.00  0.00     0.043 C 
BRANCH   9  11
HETATM   11  C15 UNL     1      50.749   6.690 100.797  1.00  0.00     0.037 C 
BRANCH  11  12
HETATM   12  C16 UNL     1      50.434   5.199 100.978  1.00  0.00     0.031 C 
BRANCH  12  13
HETATM   13  C17 UNL     1      49.025   4.948 101.449  1.00  0.00    -0.024 C 
HETATM   14  C19 UNL     1      48.618   4.487 102.648  1.00  0.00    -0.091 C 
HETATM   15  C20 UNL     1      47.151   4.323 102.946  1.00  0.00     0.042 C 
HETATM   16  C21 UNL     1      49.526   4.083 103.775  1.00  0.00     0.042 C 
ENDBRANCH  12  13
ENDBRANCH  11  12
ENDBRANCH   9  11
ENDBRANCH   7   8
ENDBRANCH   2   7
BRANCH   1  17
HETATM   17  O1  UNL     1      54.937   5.276 104.956  1.00  0.00    -0.360 OA
HETATM   18  H12 UNL     1      54.721   5.382 104.017  1.00  0.00     0.217 HD
ENDBRANCH   1  17
BRANCH   3  19
HETATM   19  O2  UNL     1      50.517   6.909 105.727  1.00  0.00    -0.360 OA
HETATM   20  H15 UNL     1      49.877   6.410 105.196  1.00  0.00     0.217 HD
ENDBRANCH   3  19
BRANCH   5  21
HETATM   21  C7  UNL     1      52.338   3.458 108.713  1.00  0.00     0.039 C 
BRANCH  21  22
HETATM   22  C8  UNL     1      52.517   1.991 108.319  1.00  0.00     0.005 C 
BRANCH  22  23
HETATM   23  C9  UNL     1      51.519   1.051 109.003  1.00  0.00    -0.000 C 
BRANCH  23  24
HETATM   24  C10 UNL     1      50.514   0.363 108.075  1.00  0.00    -0.005 C 
HETATM   25  C11 UNL     1      50.229   1.147 106.802  1.00  0.00     0.005 C 
ENDBRANCH  23  24
ENDBRANCH  22  23
ENDBRANCH  21  22
ENDBRANCH   5  21
TORSDOF 11
ENDMDL
