MODEL 1
REMARK VINA RESULT:      -6.4      0.000      0.000
REMARK  13 active torsions:
REMARK  status: ('A' for Active; 'I' for Inactive)
REMARK    1  A    between atoms: C1_1  and  C6_8 
REMARK    2  A    between atoms: C2_2  and  C7_9 
REMARK    3  A    between atoms: C6_8  and  C15_17 
REMARK    4  A    between atoms: C8_10  and  C9_11 
REMARK    5  A    between atoms: C9_11  and  C10_12 
REMARK    6  A    between atoms: C10_12  and  C11_13 
REMARK    7  A    between atoms: C11_13  and  C12_14 
REMARK    8  A    between atoms: C12_14  and  C13_15 
REMARK    9  A    between atoms: C16_18  and  C17_19 
REMARK   10  A    between atoms: C17_19  and  C18_20 
REMARK   11  A    between atoms: C18_20  and  C19_21 
REMARK   12  A    between atoms: C19_21  and  C20_22 
REMARK   13  A    between atoms: C20_22  and  O2_24 
ROOT
HETATM    1  C1  UNL     1      51.271   2.208 107.912  1.00  0.00     0.025 C 
HETATM    2  C2  UNL     1      51.163   2.233 106.354  1.00  0.00     0.041 C 
HETATM    3  C3  UNL     1      51.961   3.527 106.038  1.00  0.00     0.140 C 
HETATM    4  N1  UNL     1      53.389   3.211 106.320  1.00  0.00    -0.192 NA
HETATM    5  N2  UNL     1      53.516   3.147 107.576  1.00  0.00    -0.192 NA
HETATM    6  C4  UNL     1      52.183   3.428 108.171  1.00  0.00     0.137 C 
HETATM    7  C5  UNL     1      51.649   4.460 107.194  1.00  0.00     0.059 C 
ENDROOT
BRANCH   1   8
HETATM    8  C6  UNL     1      51.825   0.905 108.498  1.00  0.00     0.034 C 
BRANCH   8   9
HETATM    9  C15 UNL     1      50.769   0.094 109.195  1.00  0.00    -0.030 C 
HETATM   10  C16 UNL     1      49.945  -0.812 108.643  1.00  0.00    -0.031 C 
BRANCH  10  11
HETATM   11  C17 UNL     1      49.919  -1.267 107.213  1.00  0.00     0.027 C 
BRANCH  11  12
HETATM   12  C18 UNL     1      48.836  -2.312 106.920  1.00  0.00     0.014 C 
BRANCH  12  13
HETATM   13  C19 UNL     1      47.709  -1.799 106.024  1.00  0.00     0.110 C 
BRANCH  13  14
HETATM   14  C20 UNL     1      46.655  -2.838 105.752  1.00  0.00     0.139 C 
HETATM   15  O1  UNL     1      46.241  -3.196 104.662  1.00  0.00    -0.650 OA
BRANCH  14  16
HETATM   16  O2  UNL     1      46.130  -3.343 106.886  1.00  0.00    -0.776 OA
HETATM   17  H32 UNL     1      46.244  -2.623 107.539  1.00  0.00     0.167 HD
ENDBRANCH  14  16
ENDBRANCH  13  14
ENDBRANCH  12  13
ENDBRANCH  11  12
ENDBRANCH  10  11
ENDBRANCH   8   9
ENDBRANCH   1   8
BRANCH   2  18
HETATM   18  C7  UNL     1      49.719   2.168 105.905  1.00  0.00    -0.023 C 
HETATM   19  C8  UNL     1      49.248   1.705 104.736  1.00  0.00    -0.030 C 
BRANCH  19  20
HETATM   20  C9  UNL     1      47.788   1.675 104.381  1.00  0.00     0.027 C 
BRANCH  20  21
HETATM   21  C10 UNL     1      47.283   2.993 103.781  1.00  0.00     0.004 C 
BRANCH  21  22
HETATM   22  C11 UNL     1      47.259   3.071 102.248  1.00  0.00     0.000 C 
BRANCH  22  23
HETATM   23  C12 UNL     1      46.916   1.738 101.576  1.00  0.00    -0.000 C 
BRANCH  23  24
HETATM   24  C13 UNL     1      48.052   1.191 100.707  1.00  0.00    -0.005 C 
HETATM   25  C14 UNL     1      49.360   1.952 100.865  1.00  0.00     0.005 C 
ENDBRANCH  23  24
ENDBRANCH  22  23
ENDBRANCH  21  22
ENDBRANCH  20  21
ENDBRANCH  19  20
ENDBRANCH   2  18
TORSDOF 13
ENDMDL
