MODEL 1
REMARK VINA RESULT:      -6.4      0.000      0.000
REMARK  15 active torsions:
REMARK  status: ('A' for Active; 'I' for Inactive)
REMARK    1  A    between atoms: C2_2  and  C12_13 
REMARK    2  A    between atoms: C3_3  and  C6_7 
REMARK    3  A    between atoms: C4_4  and  O1_6 
REMARK    4  A    between atoms: C6_7  and  C7_8 
REMARK    5  A    between atoms: C8_9  and  C9_10 
REMARK    6  A    between atoms: C9_10  and  C10_11 
REMARK    7  A    between atoms: C10_11  and  C11_12 
REMARK    8  A    between atoms: C11_12  and  C20_22 
REMARK    9  A    between atoms: C13_14  and  C14_15 
REMARK   10  A    between atoms: C14_15  and  C15_16 
REMARK   11  A    between atoms: C14_15  and  O2_21 
REMARK   12  A    between atoms: C15_16  and  C16_17 
REMARK   13  A    between atoms: C16_17  and  C17_18 
REMARK   14  A    between atoms: C17_18  and  C18_19 
REMARK   15  A    between atoms: C20_22  and  O4_24 
ROOT
HETATM    1  C1  UNL     1      47.041   2.877 102.618  1.00  0.00     0.011 C 
HETATM    2  C2  UNL     1      47.789   1.691 103.257  1.00  0.00     0.015 C 
HETATM    3  C3  UNL     1      48.723   2.346 104.300  1.00  0.00     0.025 C 
HETATM    4  C4  UNL     1      49.122   3.653 103.601  1.00  0.00     0.123 C 
HETATM    5  C5  UNL     1      47.800   4.145 103.027  1.00  0.00     0.033 C 
ENDROOT
BRANCH   2   6
HETATM    6  C12 UNL     1      46.828   0.618 103.707  1.00  0.00    -0.023 C 
HETATM    7  C13 UNL     1      46.174  -0.269 102.938  1.00  0.00     0.001 C 
BRANCH   7   8
HETATM    8  C14 UNL     1      45.218  -1.300 103.464  1.00  0.00     0.140 C 
BRANCH   8   9
HETATM    9  C15 UNL     1      45.634  -2.711 103.029  1.00  0.00     0.036 C 
BRANCH   9  10
HETATM   10  C16 UNL     1      46.188  -2.736 101.598  1.00  0.00     0.003 C 
BRANCH  10  11
HETATM   11  C17 UNL     1      46.767  -4.095 101.194  1.00  0.00    -0.000 C 
BRANCH  11  12
HETATM   12  C18 UNL     1      47.853  -4.002 100.122  1.00  0.00    -0.005 C 
HETATM   13  C19 UNL     1      47.255  -3.728  98.750  1.00  0.00     0.005 C 
ENDBRANCH  11  12
ENDBRANCH  10  11
ENDBRANCH   9  10
ENDBRANCH   8   9
BRANCH   8  14
HETATM   14  O2  UNL     1      43.945  -0.977 102.919  1.00  0.00    -0.392 OA
HETATM   15  H33 UNL     1      43.489  -0.416 103.568  1.00  0.00     0.210 HD
ENDBRANCH   8  14
ENDBRANCH   7   8
ENDBRANCH   2   6
BRANCH   3  16
HETATM   16  C6  UNL     1      49.904   1.447 104.693  1.00  0.00     0.034 C 
BRANCH  16  17
HETATM   17  C7  UNL     1      50.769   2.084 105.748  1.00  0.00    -0.030 C 
HETATM   18  C8  UNL     1      50.855   1.761 107.048  1.00  0.00    -0.031 C 
BRANCH  18  19
HETATM   19  C9  UNL     1      50.114   0.672 107.773  1.00  0.00     0.027 C 
BRANCH  19  20
HETATM   20  C10 UNL     1      50.789  -0.686 107.556  1.00  0.00     0.014 C 
BRANCH  20  21
HETATM   21  C11 UNL     1      50.084  -1.517 106.488  1.00  0.00     0.110 C 
BRANCH  21  22
HETATM   22  C20 UNL     1      48.950  -2.329 107.047  1.00  0.00     0.139 C 
HETATM   23  O3  UNL     1      47.835  -2.434 106.567  1.00  0.00    -0.650 OA
BRANCH  22  24
HETATM   24  O4  UNL     1      49.279  -2.986 108.176  1.00  0.00    -0.776 OA
HETATM   25  H34 UNL     1      49.787  -2.325 108.692  1.00  0.00     0.167 HD
ENDBRANCH  22  24
ENDBRANCH  21  22
ENDBRANCH  20  21
ENDBRANCH  19  20
ENDBRANCH  18  19
ENDBRANCH  16  17
ENDBRANCH   3  16
BRANCH   4  26
HETATM   26  O1  UNL     1      50.033   3.415 102.533  1.00  0.00    -0.395 OA
HETATM   27  H8  UNL     1      49.532   3.501 101.704  1.00  0.00     0.210 HD
ENDBRANCH   4  26
TORSDOF 15
ENDMDL
