MODEL 1
REMARK VINA RESULT:      -7.4      0.000      0.000
REMARK  3 active torsions:
REMARK  status: ('A' for Active; 'I' for Inactive)
REMARK    1  A    between atoms: C8_9  and  C10_13 
REMARK    2  A    between atoms: C9_10  and  N4_22 
REMARK    3  A    between atoms: N4_22  and  C17_23 
ROOT
HETATM    1  C1  UNL     1      45.723  -3.242 101.994  1.00  0.00     0.047 A 
HETATM    2  C2  UNL     1      45.906  -1.973 102.559  1.00  0.00     0.015 A 
HETATM    3  C3  UNL     1      46.126  -1.902 103.943  1.00  0.00     0.039 A 
HETATM    4  C4  UNL     1      46.098  -3.052 104.734  1.00  0.00     0.035 A 
HETATM    5  C5  UNL     1      45.870  -4.299 104.159  1.00  0.00     0.026 A 
HETATM    6  C6  UNL     1      45.689  -4.398 102.782  1.00  0.00     0.032 A 
HETATM    7  N1  UNL     1      45.609  -3.366 100.611  1.00  0.00    -0.322 N 
HETATM    8  C7  UNL     1      45.720  -2.315  99.750  1.00  0.00     0.261 C 
HETATM    9  C8  UNL     1      45.886  -0.938 100.334  1.00  0.00     0.100 C 
HETATM   10  C9  UNL     1      45.901  -0.770 101.684  1.00  0.00     0.041 C 
HETATM   11  O1  UNL     1      45.661  -2.509  98.535  1.00  0.00    -0.267 OA
HETATM   12 CL1  UNL     1      46.348  -2.928 106.431  1.00  0.00    -0.084 Cl
HETATM   13  H4  UNL     1      45.502  -4.278 100.186  1.00  0.00     0.169 HD
ENDROOT
BRANCH   9  14
HETATM   14  C10 UNL     1      45.995   0.202  99.468  1.00  0.00     0.146 A 
HETATM   15  N2  UNL     1      47.045   0.298  98.576  1.00  0.00    -0.338 N 
HETATM   16  C11 UNL     1      46.923   1.462  97.866  1.00  0.00     0.062 A 
HETATM   17  H5  UNL     1      47.783  -0.391  98.481  1.00  0.00     0.167 HD
HETATM   18  C12 UNL     1      45.777   2.054  98.378  1.00  0.00     0.086 A 
HETATM   19  C13 UNL     1      47.694   2.032  96.852  1.00  0.00     0.032 A 
HETATM   20  N3  UNL     1      45.224   1.276  99.364  1.00  0.00    -0.228 NA
HETATM   21  C16 UNL     1      45.354   3.287  97.864  1.00  0.00     0.034 A 
HETATM   22  C15 UNL     1      46.108   3.883  96.844  1.00  0.00     0.002 A 
HETATM   23  C14 UNL     1      47.258   3.263  96.350  1.00  0.00     0.002 A 
ENDBRANCH   9  14
BRANCH  10  24
HETATM   24  N4  UNL     1      45.959   0.484 102.342  1.00  0.00    -0.285 NA
HETATM   25  H10 UNL     1      45.417   0.350 103.212  1.00  0.00     0.128 HD
BRANCH  24  26
HETATM   26  C17 UNL     1      47.284   0.979 102.820  1.00  0.00     0.092 C 
HETATM   27  C18 UNL     1      47.147   1.816 104.130  1.00  0.00     0.292 C 
HETATM   28  N5  UNL     1      47.901   3.097 104.072  1.00  0.00     0.090 N 
HETATM   29  C19 UNL     1      49.300   2.811 103.691  1.00  0.00     0.273 C 
HETATM   30  C23 UNL     1      47.284   3.937 103.024  1.00  0.00     0.273 C 
HETATM   31  C20 UNL     1      49.396   2.174 102.295  1.00  0.00     0.036 C 
HETATM   32  C21 UNL     1      47.981   1.870 101.767  1.00  0.00     0.008 C 
HETATM   33  C22 UNL     1      47.241   3.216 101.666  1.00  0.00     0.036 C 
ENDBRANCH  24  26
ENDBRANCH  10  24
TORSDOF 3
ENDMDL
