MODEL 1
REMARK VINA RESULT:      -8.8      0.000      0.000
REMARK  3 active torsions:
REMARK  status: ('A' for Active; 'I' for Inactive)
REMARK    1  A    between atoms: C6_6  and  N1_11 
REMARK    2  A    between atoms: N2_14  and  C13_18 
REMARK    3  A    between atoms: C13_18  and  C14_19 
ROOT
HETATM    1  N1  UNL     1      52.643   3.422 107.009  1.00  0.00    -0.227 N 
HETATM    2  S1  UNL     1      54.267   3.527 106.489  1.00  0.00     0.060 SA
HETATM    3  C11 UNL     1      53.986   5.078 105.719  1.00  0.00     0.311 A 
HETATM    4  N2  UNL     1      52.693   5.452 105.943  1.00  0.00    -0.254 N 
HETATM    5  C12 UNL     1      51.924   4.590 106.712  1.00  0.00     0.343 A 
HETATM    6  O1  UNL     1      54.848   5.690 105.109  1.00  0.00    -0.258 OA
HETATM    7  O2  UNL     1      50.792   4.870 107.096  1.00  0.00    -0.245 OA
ENDROOT
BRANCH   1   8
HETATM    8  C6  UNL     1      52.166   2.343 107.807  1.00  0.00     0.062 A 
HETATM    9  C1  UNL     1      52.513   2.319 109.171  1.00  0.00     0.031 A 
HETATM   10  C2  UNL     1      52.022   1.335 110.024  1.00  0.00     0.003 A 
HETATM   11  C3  UNL     1      51.184   0.347 109.525  1.00  0.00     0.012 A 
HETATM   12  C4  UNL     1      50.851   0.305 108.165  1.00  0.00    -0.024 A 
HETATM   13  C5  UNL     1      51.350   1.293 107.273  1.00  0.00     0.002 A 
HETATM   14  C7  UNL     1      50.037  -0.739 107.693  1.00  0.00     0.012 A 
HETATM   15  C10 UNL     1      51.045   1.113 105.899  1.00  0.00     0.014 A 
HETATM   16  C9  UNL     1      50.239   0.066 105.441  1.00  0.00     0.001 A 
HETATM   17  C8  UNL     1      49.727  -0.855 106.340  1.00  0.00     0.001 A 
ENDBRANCH   1   8
BRANCH   4  18
HETATM   18  C13 UNL     1      52.163   6.696 105.433  1.00  0.00     0.176 C 
BRANCH  18  19
HETATM   19  C14 UNL     1      51.606   6.521 104.039  1.00  0.00    -0.040 A 
HETATM   20  C15 UNL     1      52.322   6.981 102.923  1.00  0.00     0.009 A 
HETATM   21  C16 UNL     1      51.819   6.791 101.635  1.00  0.00     0.001 A 
HETATM   22  C17 UNL     1      50.604   6.135 101.449  1.00  0.00     0.000 A 
HETATM   23  C18 UNL     1      49.891   5.665 102.549  1.00  0.00     0.001 A 
HETATM   24  C19 UNL     1      50.389   5.852 103.838  1.00  0.00     0.009 A 
ENDBRANCH  18  19
ENDBRANCH   4  18
TORSDOF 3
ENDMDL
