MODEL 1
REMARK VINA RESULT:      -6.8      0.000      0.000
REMARK  16 active torsions:
REMARK  status: ('A' for Active; 'I' for Inactive)
REMARK    1  A    between atoms: C1_1  and  O2_7 
REMARK    2  A    between atoms: C2_2  and  C12_14 
REMARK    3  A    between atoms: C3_3  and  C6_8 
REMARK    4  A    between atoms: C4_4  and  O1_6 
REMARK    5  A    between atoms: C6_8  and  C7_9 
REMARK    6  A    between atoms: C8_10  and  C9_11 
REMARK    7  A    between atoms: C9_11  and  C10_12 
REMARK    8  A    between atoms: C10_12  and  C11_13 
REMARK    9  A    between atoms: C11_13  and  C21_24 
REMARK   10  A    between atoms: C13_15  and  C14_16 
REMARK   11  A    between atoms: C14_16  and  C15_17 
REMARK   12  A    between atoms: C14_16  and  O3_23 
REMARK   13  A    between atoms: C15_17  and  C16_18 
REMARK   14  A    between atoms: C16_18  and  C17_19 
REMARK   15  A    between atoms: C17_19  and  C18_20 
REMARK   16  A    between atoms: C21_24  and  O5_26 
ROOT
HETATM    1  C1  UNL     1      50.885   4.494 106.137  1.00  0.00     0.128 C 
HETATM    2  C2  UNL     1      50.877   2.958 106.046  1.00  0.00     0.043 C 
HETATM    3  C3  UNL     1      51.262   2.546 107.477  1.00  0.00     0.028 C 
HETATM    4  C4  UNL     1      52.403   3.525 107.793  1.00  0.00     0.125 C 
HETATM    5  C5  UNL     1      51.986   4.848 107.142  1.00  0.00     0.064 C 
ENDROOT
BRANCH   2   6
HETATM    6  C12 UNL     1      49.532   2.421 105.611  1.00  0.00    -0.020 C 
HETATM    7  C13 UNL     1      48.870   2.864 104.528  1.00  0.00     0.007 C 
BRANCH   7   8
HETATM    8  C14 UNL     1      47.531   2.382 103.996  1.00  0.00     0.072 C 
HETATM    9  C20 UNL     1      47.209   2.870 102.581  1.00  0.00     0.050 C 
BRANCH   8  10
HETATM   10  C15 UNL     1      47.479   0.840 104.121  1.00  0.00     0.041 C 
BRANCH  10  11
HETATM   11  C16 UNL     1      46.688   0.103 103.027  1.00  0.00     0.003 C 
BRANCH  11  12
HETATM   12  C17 UNL     1      45.924  -1.114 103.559  1.00  0.00    -0.000 C 
BRANCH  12  13
HETATM   13  C18 UNL     1      45.324  -1.982 102.450  1.00  0.00    -0.005 C 
HETATM   14  C19 UNL     1      46.018  -1.817 101.105  1.00  0.00     0.005 C 
ENDBRANCH  12  13
ENDBRANCH  11  12
ENDBRANCH  10  11
ENDBRANCH   8  10
BRANCH   8  15
HETATM   15  O3  UNL     1      46.532   2.951 104.848  1.00  0.00    -0.386 OA
HETATM   16  H35 UNL     1      45.734   2.398 104.789  1.00  0.00     0.211 HD
ENDBRANCH   8  15
ENDBRANCH   7   8
ENDBRANCH   2   6
BRANCH   1  17
HETATM   17  O2  UNL     1      51.150   5.097 104.878  1.00  0.00    -0.395 OA
HETATM   18  H8  UNL     1      51.573   5.955 105.057  1.00  0.00     0.210 HD
ENDBRANCH   1  17
BRANCH   3  19
HETATM   19  C6  UNL     1      51.618   1.059 107.595  1.00  0.00     0.034 C 
BRANCH  19  20
HETATM   20  C7  UNL     1      50.691   0.334 108.532  1.00  0.00    -0.030 C 
HETATM   21  C8  UNL     1      49.891  -0.706 108.240  1.00  0.00    -0.031 C 
BRANCH  21  22
HETATM   22  C9  UNL     1      49.736  -1.391 106.911  1.00  0.00     0.027 C 
BRANCH  22  23
HETATM   23  C10 UNL     1      48.921  -2.680 107.051  1.00  0.00     0.013 C 
BRANCH  23  24
HETATM   24  C11 UNL     1      47.532  -2.559 106.425  1.00  0.00     0.111 C 
BRANCH  24  25
HETATM   25  C21 UNL     1      46.864  -3.897 106.202  1.00  0.00     0.258 C 
HETATM   26  O4  UNL     1      45.660  -4.080 106.107  1.00  0.00    -0.265 OA
BRANCH  25  27
HETATM   27  O5  UNL     1      47.816  -4.864 106.091  1.00  0.00    -0.326 OA
HETATM   28  C22 UNL     1      47.538  -6.042 106.848  1.00  0.00     0.213 C 
ENDBRANCH  25  27
ENDBRANCH  24  25
ENDBRANCH  23  24
ENDBRANCH  22  23
ENDBRANCH  21  22
ENDBRANCH  19  20
ENDBRANCH   3  19
BRANCH   4  29
HETATM   29  O1  UNL     1      53.624   3.078 107.210  1.00  0.00    -0.395 OA
HETATM   30  H7  UNL     1      53.399   2.494 106.465  1.00  0.00     0.210 HD
ENDBRANCH   4  29
TORSDOF 16
ENDMDL
