MODEL 1
REMARK VINA RESULT:      -7.7      0.000      0.000
REMARK  14 active torsions:
REMARK  status: ('A' for Active; 'I' for Inactive)
REMARK    1  A    between atoms: C1_1  and  O2_7 
REMARK    2  A    between atoms: C2_2  and  C12_14 
REMARK    3  A    between atoms: C3_3  and  C6_8 
REMARK    4  A    between atoms: C4_4  and  O1_6 
REMARK    5  A    between atoms: C6_8  and  C7_9 
REMARK    6  A    between atoms: C8_10  and  C9_11 
REMARK    7  A    between atoms: C9_11  and  C10_12 
REMARK    8  A    between atoms: C10_12  and  C11_13 
REMARK    9  A    between atoms: C11_13  and  C22_25 
REMARK   10  A    between atoms: C13_15  and  C14_16 
REMARK   11  A    between atoms: C14_16  and  C15_17 
REMARK   12  A    between atoms: C14_16  and  O3_24 
REMARK   13  A    between atoms: C15_17  and  C16_18 
REMARK   14  A    between atoms: C22_25  and  O5_27 
ROOT
HETATM    1  C1  UNL     1      47.723   2.670 103.572  1.00  0.00     0.128 C 
HETATM    2  C2  UNL     1      48.200   1.246 103.913  1.00  0.00     0.043 C 
HETATM    3  C3  UNL     1      49.134   1.441 105.142  1.00  0.00     0.028 C 
HETATM    4  C4  UNL     1      49.451   2.957 105.174  1.00  0.00     0.125 C 
HETATM    5  C5  UNL     1      48.968   3.501 103.839  1.00  0.00     0.064 C 
ENDROOT
BRANCH   2   6
HETATM    6  C12 UNL     1      47.155   0.176 104.159  1.00  0.00    -0.021 C 
HETATM    7  C13 UNL     1      46.269  -0.316 103.275  1.00  0.00     0.001 C 
BRANCH   7   8
HETATM    8  C14 UNL     1      45.204  -1.363 103.509  1.00  0.00     0.145 C 
BRANCH   8   9
HETATM    9  C15 UNL     1      45.470  -2.775 102.942  1.00  0.00     0.074 C 
BRANCH   9  10
HETATM   10  C16 UNL     1      46.130  -3.711 103.937  1.00  0.00    -0.056 A 
HETATM   11  C17 UNL     1      46.399  -3.301 105.251  1.00  0.00     0.007 A 
HETATM   12  C18 UNL     1      47.004  -4.173 106.160  1.00  0.00     0.001 A 
HETATM   13  C19 UNL     1      47.341  -5.466 105.766  1.00  0.00     0.000 A 
HETATM   14  C20 UNL     1      47.075  -5.889 104.467  1.00  0.00     0.001 A 
HETATM   15  C21 UNL     1      46.474  -5.016 103.555  1.00  0.00     0.007 A 
ENDBRANCH   9  10
ENDBRANCH   8   9
BRANCH   8  16
HETATM   16  O3  UNL     1      44.009  -0.818 102.947  1.00  0.00    -0.391 OA
HETATM   17  H29 UNL     1      44.210   0.094 102.670  1.00  0.00     0.210 HD
ENDBRANCH   8  16
ENDBRANCH   7   8
ENDBRANCH   2   6
BRANCH   1  18
HETATM   18  O2  UNL     1      47.333   2.786 102.213  1.00  0.00    -0.395 OA
HETATM   19  H8  UNL     1      46.364   2.878 102.200  1.00  0.00     0.210 HD
ENDBRANCH   1  18
BRANCH   3  20
HETATM   20  C6  UNL     1      50.322   0.459 105.198  1.00  0.00     0.034 C 
BRANCH  20  21
HETATM   21  C7  UNL     1      50.142  -0.775 106.040  1.00  0.00    -0.030 C 
HETATM   22  C8  UNL     1      50.036  -0.847 107.377  1.00  0.00    -0.031 C 
BRANCH  22  23
HETATM   23  C9  UNL     1      50.125   0.277 108.370  1.00  0.00     0.027 C 
BRANCH  23  24
HETATM   24  C10 UNL     1      51.562   0.604 108.797  1.00  0.00     0.014 C 
BRANCH  24  25
HETATM   25  C11 UNL     1      52.154   1.860 108.158  1.00  0.00     0.110 C 
BRANCH  25  26
HETATM   26  C22 UNL     1      52.541   2.912 109.160  1.00  0.00     0.139 C 
HETATM   27  O4  UNL     1      52.568   4.117 108.966  1.00  0.00    -0.650 OA
BRANCH  26  28
HETATM   28  O5  UNL     1      52.923   2.404 110.347  1.00  0.00    -0.776 OA
HETATM   29  H30 UNL     1      52.750   3.130 110.981  1.00  0.00     0.167 HD
ENDBRANCH  26  28
ENDBRANCH  25  26
ENDBRANCH  24  25
ENDBRANCH  23  24
ENDBRANCH  22  23
ENDBRANCH  20  21
ENDBRANCH   3  20
BRANCH   4  30
HETATM   30  O1  UNL     1      50.802   3.298 105.403  1.00  0.00    -0.395 OA
HETATM   31  H7  UNL     1      50.871   4.267 105.398  1.00  0.00     0.210 HD
ENDBRANCH   4  30
TORSDOF 14
ENDMDL
