MODEL 1
REMARK VINA RESULT:      -7.7      0.000      0.000
REMARK  16 active torsions:
REMARK  status: ('A' for Active; 'I' for Inactive)
REMARK    1  A    between atoms: C1_1  and  O3_31 
REMARK    2  A    between atoms: C2_2  and  C6_6 
REMARK    3  A    between atoms: C3_3  and  C11_11 
REMARK    4  A    between atoms: C4_4  and  O4_32 
REMARK    5  A    between atoms: C7_7  and  C8_8 
REMARK    6  A    between atoms: C8_8  and  C9_9 
REMARK    7  A    between atoms: C8_8  and  O2_30 
REMARK    8  A    between atoms: C9_9  and  C10_10 
REMARK    9  A    between atoms: C10_10  and  C14_14 
REMARK   10  A    between atoms: C11_11  and  C12_12 
REMARK   11  A    between atoms: C13_13  and  C20_20 
REMARK   12  A    between atoms: C20_20  and  C21_21 
REMARK   13  A    between atoms: C21_21  and  C22_22 
REMARK   14  A    between atoms: C22_22  and  C23_23 
REMARK       I    between atoms: C23_23  and  N1_24 
REMARK   15  A    between atoms: N1_24  and  C24_25 
REMARK   16  A    between atoms: N1_24  and  C26_27 
ROOT
HETATM    1  C1  UNL     1      45.942  -5.003 105.328  1.00  0.00     0.128 C 
HETATM    2  C2  UNL     1      46.350  -3.566 105.760  1.00  0.00     0.043 C 
HETATM    3  C3  UNL     1      47.868  -3.670 106.066  1.00  0.00     0.028 C 
HETATM    4  C4  UNL     1      48.059  -5.147 106.441  1.00  0.00     0.125 C 
HETATM    5  C5  UNL     1      47.209  -5.860 105.398  1.00  0.00     0.064 C 
ENDROOT
BRANCH   2   6
HETATM    6  C6  UNL     1      46.041  -2.417 104.819  1.00  0.00    -0.021 C 
HETATM    7  C7  UNL     1      45.749  -2.464 103.508  1.00  0.00     0.001 C 
BRANCH   7   8
HETATM    8  C8  UNL     1      45.417  -1.250 102.681  1.00  0.00     0.141 C 
BRANCH   8   9
HETATM    9  C9  UNL     1      46.351  -0.082 103.014  1.00  0.00     0.040 C 
BRANCH   9  10
HETATM   10  C10 UNL     1      46.749   0.703 101.759  1.00  0.00     0.041 C 
BRANCH  10  11
HETATM   11  C14 UNL     1      47.470   1.979 102.116  1.00  0.00    -0.058 A 
HETATM   12  C15 UNL     1      48.830   2.136 101.813  1.00  0.00     0.007 A 
HETATM   13  C16 UNL     1      49.502   3.307 102.168  1.00  0.00     0.001 A 
HETATM   14  C17 UNL     1      48.823   4.329 102.828  1.00  0.00     0.000 A 
HETATM   15  C18 UNL     1      47.472   4.183 103.137  1.00  0.00     0.001 A 
HETATM   16  C19 UNL     1      46.797   3.012 102.785  1.00  0.00     0.007 A 
ENDBRANCH  10  11
ENDBRANCH   9  10
ENDBRANCH   8   9
BRANCH   8  17
HETATM   17  O2  UNL     1      44.068  -0.889 102.962  1.00  0.00    -0.392 OA
HETATM   18  H39 UNL     1      43.540  -1.076 102.168  1.00  0.00     0.210 HD
ENDBRANCH   8  17
ENDBRANCH   7   8
ENDBRANCH   2   6
BRANCH   1  19
HETATM   19  O3  UNL     1      45.001  -5.505 106.284  1.00  0.00    -0.395 OA
HETATM   20  H40 UNL     1      44.305  -5.973 105.789  1.00  0.00     0.210 HD
ENDBRANCH   1  19
BRANCH   3  21
HETATM   21  C11 UNL     1      48.339  -2.676 107.139  1.00  0.00     0.034 C 
BRANCH  21  22
HETATM   22  C12 UNL     1      49.621  -1.987 106.752  1.00  0.00    -0.030 C 
HETATM   23  C13 UNL     1      50.195  -0.933 107.354  1.00  0.00    -0.031 C 
BRANCH  23  24
HETATM   24  C20 UNL     1      49.720  -0.219 108.592  1.00  0.00     0.027 C 
BRANCH  24  25
HETATM   25  C21 UNL     1      50.864   0.320 109.458  1.00  0.00     0.013 C 
BRANCH  25  26
HETATM   26  C22 UNL     1      52.079   0.819 108.671  1.00  0.00     0.103 C 
BRANCH  26  27
HETATM   27  C23 UNL     1      52.243   2.333 108.701  1.00  0.00     0.219 C 
HETATM   28  N1  UNL     1      51.949   3.026 107.527  1.00  0.00    -0.353 N 
HETATM   29  O1  UNL     1      52.589   2.918 109.729  1.00  0.00    -0.273 OA
BRANCH  28  30
HETATM   30  C24 UNL     1      52.098   4.482 107.531  1.00  0.00     0.121 C 
HETATM   31  C25 UNL     1      52.752   4.988 106.254  1.00  0.00     0.026 C 
ENDBRANCH  28  30
BRANCH  28  32
HETATM   32  C26 UNL     1      51.484   2.409 106.284  1.00  0.00     0.121 C 
HETATM   33  C27 UNL     1      49.982   2.563 106.104  1.00  0.00     0.026 C 
ENDBRANCH  28  32
ENDBRANCH  26  27
ENDBRANCH  25  26
ENDBRANCH  24  25
ENDBRANCH  23  24
ENDBRANCH  21  22
ENDBRANCH   3  21
BRANCH   4  34
HETATM   34  O4  UNL     1      47.572  -5.448 107.745  1.00  0.00    -0.395 OA
HETATM   35  H41 UNL     1      46.878  -4.798 107.977  1.00  0.00     0.210 HD
ENDBRANCH   4  34
TORSDOF 16
ENDMDL
