MODEL 1
REMARK VINA RESULT:      -9.4      0.000      0.000
REMARK  5 active torsions:
REMARK  status: ('A' for Active; 'I' for Inactive)
REMARK    1  A    between atoms: C1_1  and  C6_7 
REMARK    2  A    between atoms: C13_15  and  C14_16 
REMARK    3  A    between atoms: C17_19  and  C20_22 
REMARK    4  A    between atoms: C18_20  and  C21_25 
REMARK    5  A    between atoms: C20_22  and  O2_24 
ROOT
HETATM    1  C1  UNL     1      50.840   3.112 106.373  1.00  0.00    -0.007 A 
HETATM    2  C2  UNL     1      51.306   4.389 106.038  1.00  0.00     0.131 A 
HETATM    3  N1  UNL     1      50.923   5.143 104.975  1.00  0.00    -0.242 NA
HETATM    4  C3  UNL     1      50.002   4.530 104.212  1.00  0.00     0.138 A 
HETATM    5  C4  UNL     1      49.445   3.271 104.399  1.00  0.00     0.023 A 
HETATM    6  C5  UNL     1      49.879   2.542 105.523  1.00  0.00     0.030 A 
HETATM    7  N2  UNL     1      49.447   5.076 103.089  1.00  0.00    -0.349 N 
HETATM    8  C12 UNL     1      48.543   4.202 102.542  1.00  0.00     0.103 A 
HETATM    9  C13 UNL     1      48.516   3.064 103.330  1.00  0.00     0.004 A 
HETATM   10  H8  UNL     1      49.689   5.991 102.736  1.00  0.00     0.167 HD
ENDROOT
BRANCH   9  11
HETATM   11  C14 UNL     1      47.680   1.915 103.033  1.00  0.00    -0.023 A 
HETATM   12  C15 UNL     1      47.378   0.992 104.034  1.00  0.00     0.013 A 
HETATM   13  C16 UNL     1      46.583  -0.114 103.742  1.00  0.00     0.020 A 
HETATM   14  C17 UNL     1      46.081  -0.311 102.445  1.00  0.00     0.044 A 
HETATM   15  C18 UNL     1      46.332   0.629 101.418  1.00  0.00    -0.036 A 
HETATM   16  C19 UNL     1      47.158   1.727 101.742  1.00  0.00     0.021 A 
BRANCH  14  17
HETATM   17  C20 UNL     1      45.287  -1.548 102.266  1.00  0.00     0.176 C 
HETATM   18  O1  UNL     1      45.680  -2.578 101.751  1.00  0.00    -0.646 OA
BRANCH  17  19
HETATM   19  O2  UNL     1      44.008  -1.392 102.646  1.00  0.00    -0.773 OA
HETATM   20  H13 UNL     1      44.063  -1.250 103.613  1.00  0.00     0.167 HD
ENDBRANCH  17  19
ENDBRANCH  14  17
BRANCH  15  21
HETATM   21  C21 UNL     1      45.735   0.488 100.028  1.00  0.00     0.019 C 
HETATM   22  C22 UNL     1      46.562  -0.250  98.964  1.00  0.00     0.009 C 
HETATM   23  C23 UNL     1      45.831   0.075  97.672  1.00  0.00     0.001 C 
HETATM   24  C24 UNL     1      45.420   1.535  97.829  1.00  0.00     0.001 C 
HETATM   25  C25 UNL     1      45.468   1.833  99.328  1.00  0.00     0.009 C 
ENDBRANCH  15  21
ENDBRANCH   9  11
BRANCH   1  26
HETATM   26  C6  UNL     1      51.331   2.399 107.563  1.00  0.00    -0.025 A 
HETATM   27  C7  UNL     1      51.005   1.050 107.783  1.00  0.00     0.012 A 
HETATM   28  C8  UNL     1      51.471   0.372 108.911  1.00  0.00     0.001 A 
HETATM   29  C9  UNL     1      52.272   1.031 109.840  1.00  0.00     0.000 A 
HETATM   30  C10 UNL     1      52.605   2.368 109.642  1.00  0.00     0.001 A 
HETATM   31  C11 UNL     1      52.139   3.045 108.513  1.00  0.00     0.012 A 
ENDBRANCH   1  26
TORSDOF 5
ENDMDL
