MODEL 1
REMARK VINA RESULT:      -7.4      0.000      0.000
REMARK  4 active torsions:
REMARK  status: ('A' for Active; 'I' for Inactive)
REMARK    1  A    between atoms: C4_4  and  O2_13 
REMARK    2  A    between atoms: C5_5  and  N3_15 
REMARK    3  A    between atoms: N3_15  and  S1_16 
REMARK    4  A    between atoms: S1_16  and  C11_17 
ROOT
HETATM    1  C1  UNL     1      51.005   3.534 106.008  1.00  0.00     0.067 A 
HETATM    2  C2  UNL     1      50.374   2.358 106.419  1.00  0.00     0.068 A 
HETATM    3  C3  UNL     1      49.225   1.887 105.813  1.00  0.00     0.070 A 
HETATM    4  C4  UNL     1      48.702   2.647 104.760  1.00  0.00     0.092 A 
HETATM    5  C5  UNL     1      49.352   3.845 104.350  1.00  0.00     0.058 A 
HETATM    6  C6  UNL     1      50.518   4.298 104.972  1.00  0.00     0.059 A 
HETATM    7  N1  UNL     1      52.126   3.731 106.823  1.00  0.00    -0.302 N 
HETATM    8  C7  UNL     1      52.210   2.674 107.756  1.00  0.00     0.329 A 
HETATM    9  N2  UNL     1      51.110   1.827 107.486  1.00  0.00    -0.302 N 
HETATM   10  C8  UNL     1      53.034   4.836 106.731  1.00  0.00     0.161 C 
HETATM   11  C9  UNL     1      50.796   0.623 108.198  1.00  0.00     0.161 C 
HETATM   12  O1  UNL     1      53.056   2.521 108.622  1.00  0.00    -0.246 OA
ENDROOT
BRANCH   5  13
HETATM   13  N3  UNL     1      48.766   4.622 103.298  1.00  0.00    -0.179 NA
HETATM   14  H12 UNL     1      48.849   5.631 103.449  1.00  0.00     0.146 HD
BRANCH  13  15
HETATM   15  S1  UNL     1      49.187   4.237 101.700  1.00  0.00     0.246 S 
HETATM   16  O3  UNL     1      47.947   4.210 100.953  1.00  0.00    -0.206 OA
HETATM   17  O4  UNL     1      50.065   3.088 101.708  1.00  0.00    -0.206 OA
BRANCH  15  18
HETATM   18  C11 UNL     1      50.089   5.690 101.154  1.00  0.00     0.080 A 
HETATM   19  C12 UNL     1      50.495   6.578 102.170  1.00  0.00     0.027 A 
HETATM   20  C13 UNL     1      51.215   7.731 101.860  1.00  0.00     0.020 A 
HETATM   21  C14 UNL     1      51.521   8.007 100.532  1.00  0.00     0.011 A 
HETATM   22  C15 UNL     1      51.102   7.149  99.515  1.00  0.00     0.027 A 
HETATM   23 BR1  UNL     1      52.507   9.561 100.103  1.00  0.00    -0.051 Br
HETATM   24  C16 UNL     1      50.373   5.978  99.805  1.00  0.00    -0.038 A 
HETATM   25  C17 UNL     1      49.926   5.130  98.648  1.00  0.00     0.050 C 
ENDBRANCH  15  18
ENDBRANCH  13  15
ENDBRANCH   5  13
BRANCH   4  26
HETATM   26  O2  UNL     1      47.574   2.324 104.043  1.00  0.00    -0.354 OA
HETATM   27  C10 UNL     1      47.390   0.951 103.719  1.00  0.00     0.210 C 
ENDBRANCH   4  26
TORSDOF 4
ENDMDL
