MODEL 1
REMARK VINA RESULT:      -7.4      0.000      0.000
REMARK  8 active torsions:
REMARK  status: ('A' for Active; 'I' for Inactive)
REMARK    1  A    between atoms: N1_2  and  C19_27 
REMARK    2  A    between atoms: N2_15  and  C15_19 
REMARK    3  A    between atoms: C15_19  and  C16_20 
REMARK    4  A    between atoms: C16_20  and  O3_21 
REMARK    5  A    between atoms: O3_21  and  C17_23 
REMARK    6  A    between atoms: C19_27  and  C20_28 
REMARK    7  A    between atoms: C20_28  and  O7_29 
REMARK    8  A    between atoms: O7_29  and  C21_31 
ROOT
HETATM    1  C1  UNL     1      46.706   0.682 101.884  1.00  0.00     0.262 A 
HETATM    2  N1  UNL     1      46.400   1.460 100.772  1.00  0.00    -0.271 N 
HETATM    3  C2  UNL     1      46.932   2.718 100.507  1.00  0.00     0.262 A 
HETATM    4  C3  UNL     1      47.809   3.307 101.545  1.00  0.00     0.044 A 
HETATM    5  C4  UNL     1      48.104   2.577 102.705  1.00  0.00     0.008 A 
HETATM    6  C5  UNL     1      47.585   1.292 102.908  1.00  0.00     0.044 A 
HETATM    7  C6  UNL     1      48.336   4.590 101.355  1.00  0.00     0.019 A 
HETATM    8  C7  UNL     1      49.162   5.154 102.325  1.00  0.00     0.019 A 
HETATM    9  C8  UNL     1      49.466   4.436 103.487  1.00  0.00     0.044 A 
HETATM   10  C9  UNL     1      48.948   3.151 103.690  1.00  0.00     0.008 A 
HETATM   11  C10 UNL     1      49.243   2.421 104.849  1.00  0.00     0.044 A 
HETATM   12  C11 UNL     1      48.715   1.139 105.040  1.00  0.00     0.019 A 
HETATM   13  C12 UNL     1      47.890   0.574 104.070  1.00  0.00     0.019 A 
HETATM   14  C13 UNL     1      50.346   5.046 104.510  1.00  0.00     0.262 A 
HETATM   15  N2  UNL     1      50.653   4.266 105.621  1.00  0.00    -0.271 N 
HETATM   16  C14 UNL     1      50.120   3.010 105.888  1.00  0.00     0.262 A 
HETATM   17  O1  UNL     1      50.332   2.386 106.923  1.00  0.00    -0.267 OA
HETATM   18  O2  UNL     1      50.754   6.192 104.349  1.00  0.00    -0.267 OA
HETATM   19  O5  UNL     1      46.721   3.341  99.471  1.00  0.00    -0.267 OA
HETATM   20  O6  UNL     1      46.299  -0.465 102.045  1.00  0.00    -0.267 OA
ENDROOT
BRANCH   2  21
HETATM   21  C19 UNL     1      45.571   0.850  99.734  1.00  0.00     0.246 C 
BRANCH  21  22
HETATM   22  C20 UNL     1      46.338  -0.114  98.836  1.00  0.00     0.277 C 
HETATM   23  O8  UNL     1      47.295   0.231  98.151  1.00  0.00    -0.263 OA
BRANCH  22  24
HETATM   24  O7  UNL     1      45.844  -1.384  98.886  1.00  0.00    -0.321 OA
BRANCH  24  25
HETATM   25  C21 UNL     1      46.799  -2.403  98.571  1.00  0.00     0.174 C 
HETATM   26  C22 UNL     1      47.333  -2.966  99.874  1.00  0.00     0.034 C 
ENDBRANCH  24  25
ENDBRANCH  22  24
ENDBRANCH  21  22
ENDBRANCH   2  21
BRANCH  15  27
HETATM   27  C15 UNL     1      51.489   4.873 106.656  1.00  0.00     0.246 C 
BRANCH  27  28
HETATM   28  C16 UNL     1      52.930   4.377 106.643  1.00  0.00     0.277 C 
HETATM   29  O4  UNL     1      53.402   3.684 107.539  1.00  0.00    -0.263 OA
BRANCH  28  30
HETATM   30  O3  UNL     1      53.617   4.788 105.540  1.00  0.00    -0.321 OA
BRANCH  30  31
HETATM   31  C17 UNL     1      54.582   5.829 105.752  1.00  0.00     0.174 C 
HETATM   32  C18 UNL     1      54.072   7.137 105.180  1.00  0.00     0.034 C 
ENDBRANCH  30  31
ENDBRANCH  28  30
ENDBRANCH  27  28
ENDBRANCH  15  27
TORSDOF 8
ENDMDL
