MODEL 1
REMARK VINA RESULT:      -7.2      0.000      0.000
REMARK  6 active torsions:
REMARK  status: ('A' for Active; 'I' for Inactive)
REMARK    1  A    between atoms: C4_5  and  C6_7 
REMARK    2  A    between atoms: C6_7  and  N2_8 
REMARK    3  A    between atoms: N3_9  and  O1_10 
REMARK    4  A    between atoms: C8_12  and  C9_13 
REMARK    5  A    between atoms: C8_12  and  O2_14 
REMARK    6  A    between atoms: C9_13  and  N4_15 
ROOT
HETATM    1  O1  UNL     1      50.809   4.613 104.681  1.00  0.00    -0.252 OA
HETATM    2  C7  UNL     1      51.073   5.853 104.113  1.00  0.00     0.237 A 
HETATM    3  C8  UNL     1      50.374   5.836 102.746  1.00  0.00     0.172 A 
HETATM    4 CL1  UNL     1      50.841   6.040 104.728  1.00  0.00    -0.145 Cl
HETATM    5 CL2  UNL     1      50.842   6.038 104.730  1.00  0.00    -0.145 Cl
HETATM    6  H23 UNL     1      50.631   6.835 103.624  1.00  0.00     0.145 HD
HETATM    7  H24 UNL     1      50.630   6.836 103.622  1.00  0.00     0.145 HD
ENDROOT
BRANCH   1   8
HETATM    8  N3  UNL     1      51.179   4.093 105.855  1.00  0.00    -0.115 NA
HETATM    9  C6  UNL     1      51.097   2.857 106.202  1.00  0.00     0.160 C 
BRANCH   9  10
HETATM   10  C4  UNL     1      51.538   2.397 107.527  1.00  0.00     0.029 A 
HETATM   11  C3  UNL     1      52.280   3.271 108.286  1.00  0.00     0.131 A 
HETATM   12  N1  UNL     1      52.740   2.956 109.523  1.00  0.00    -0.272 NA
HETATM   13  C2  UNL     1      52.433   1.726 109.982  1.00  0.00     0.116 A 
HETATM   14  C1  UNL     1      51.695   0.808 109.269  1.00  0.00     0.020 A 
HETATM   15  C5  UNL     1      51.240   1.153 108.013  1.00  0.00     0.018 A 
ENDBRANCH   9  10
BRANCH   9  16
HETATM   16  N2  UNL     1      50.560   1.944 105.251  1.00  0.00    -0.382 N 
HETATM   17  H5  UNL     1      49.499   1.945 105.189  1.00  0.00     0.157 HD
HETATM   18  H6  UNL     1      51.178   1.344 104.685  1.00  0.00     0.157 HD
ENDBRANCH   9  16
ENDBRANCH   1   8
BRANCH   3  19
HETATM   19  C9  UNL     1      50.776   6.953 101.876  1.00  0.00     0.306 C 
BRANCH  19  20
HETATM   20  N4  UNL     1      51.494   6.648 100.694  1.00  0.00     0.091 N 
HETATM   21  C10 UNL     1      52.719   7.333 100.494  1.00  0.00     0.272 C 
HETATM   22  C11 UNL     1      52.587   8.840 100.696  1.00  0.00     0.030 C 
HETATM   23  C12 UNL     1      51.563   9.311  99.699  1.00  0.00     0.003 C 
HETATM   24  C13 UNL     1      51.034   8.207  98.833  1.00  0.00     0.030 C 
HETATM   25  C14 UNL     1      50.618   6.983  99.562  1.00  0.00     0.272 C 
ENDBRANCH  19  20
ENDBRANCH   3  19
BRANCH   3  26
HETATM   26  O2  UNL     1      49.045   5.646 102.969  1.00  0.00    -0.392 OA
HETATM   27  H12 UNL     1      48.471   5.987 102.251  1.00  0.00     0.210 HD
ENDBRANCH   3  26
TORSDOF 6
ENDMDL
