MODEL 1
REMARK VINA RESULT:      -8.3      0.000      0.000
REMARK  6 active torsions:
REMARK  status: ('A' for Active; 'I' for Inactive)
REMARK    1  A    between atoms: C2_2  and  C12_17 
REMARK    2  A    between atoms: N3_7  and  C5_10 
REMARK    3  A    between atoms: C5_10  and  C6_11 
REMARK    4  A    between atoms: N6_19  and  C15_22 
REMARK    5  A    between atoms: C15_22  and  C16_23 
REMARK    6  A    between atoms: C16_23  and  O1_24 
ROOT
HETATM    1  C1  UNL     1      47.820   4.877 102.742  1.00  0.00     0.151 A 
HETATM    2  C2  UNL     1      49.215   4.734 102.755  1.00  0.00     0.090 A 
HETATM    3  N1  UNL     1      49.835   3.601 103.190  1.00  0.00    -0.224 NA
HETATM    4  C3  UNL     1      48.932   2.674 103.580  1.00  0.00     0.194 A 
HETATM    5  C4  UNL     1      47.548   2.797 103.575  1.00  0.00     0.214 A 
HETATM    6  N2  UNL     1      46.931   3.928 103.149  1.00  0.00    -0.235 NA
HETATM    7  N3  UNL     1      49.130   1.413 104.063  1.00  0.00    -0.249 N 
HETATM    8  N4  UNL     1      47.959   0.804 104.365  1.00  0.00     0.009 NA
HETATM    9  N5  UNL     1      46.977   1.652 104.056  1.00  0.00    -0.136 NA
ENDROOT
BRANCH   7  10
HETATM   10  C5  UNL     1      50.395   0.756 104.305  1.00  0.00     0.187 C 
BRANCH  10  11
HETATM   11  C6  UNL     1      50.788   0.845 105.759  1.00  0.00    -0.038 A 
HETATM   12  C7  UNL     1      51.348   2.021 106.278  1.00  0.00     0.022 A 
HETATM   13  C8  UNL     1      51.699   2.111 107.638  1.00  0.00    -0.007 A 
HETATM   14  C9  UNL     1      51.492   1.016 108.502  1.00  0.00     0.066 A 
HETATM   15  C17 UNL     1      52.259   3.277 108.179  1.00  0.00     0.015 A 
HETATM   16  C10 UNL     1      50.927  -0.136 107.973  1.00  0.00     0.033 A 
HETATM   17  N8  UNL     1      51.815   1.055 109.807  1.00  0.00    -0.260 NA
HETATM   18  C11 UNL     1      50.572  -0.231 106.623  1.00  0.00     0.011 A 
HETATM   19  C19 UNL     1      52.353   2.196 110.291  1.00  0.00     0.117 A 
HETATM   20  C18 UNL     1      52.592   3.322 109.526  1.00  0.00     0.020 A 
ENDBRANCH  10  11
ENDBRANCH   7  10
BRANCH   2  21
HETATM   21  C12 UNL     1      50.086   5.805 102.297  1.00  0.00     0.030 A 
HETATM   22  C13 UNL     1      50.199   6.216 100.983  1.00  0.00     0.127 A 
HETATM   23  N6  UNL     1      51.127   7.220 100.964  1.00  0.00    -0.278 N 
HETATM   24  N7  UNL     1      51.575   7.541 102.193  1.00  0.00    -0.184 NA
HETATM   25  C14 UNL     1      50.965   6.664 102.994  1.00  0.00     0.154 A 
BRANCH  23  26
HETATM   26  C15 UNL     1      51.536   8.012  99.816  1.00  0.00     0.176 C 
BRANCH  26  27
HETATM   27  C16 UNL     1      51.897   9.456 100.162  1.00  0.00     0.185 C 
BRANCH  27  28
HETATM   28  O1  UNL     1      50.823  10.104 100.834  1.00  0.00    -0.399 OA
HETATM   29  H13 UNL     1      50.999  10.051 101.789  1.00  0.00     0.209 HD
ENDBRANCH  27  28
ENDBRANCH  26  27
ENDBRANCH  23  26
ENDBRANCH   2  21
TORSDOF 6
ENDMDL
