MODEL 1
REMARK VINA RESULT:      -7.1      0.000      0.000
REMARK  0 active torsions:
REMARK  status: ('A' for Active; 'I' for Inactive)
ROOT
HETATM    1  C1  UNL     1      46.731   0.730 103.244  1.00  0.00     0.079 C 
HETATM    2  C2  UNL     1      46.987   1.437 101.939  1.00  0.00     0.127 C 
HETATM    3  C3  UNL     1      47.568   2.830 102.014  1.00  0.00     0.091 C 
HETATM    4  C4  UNL     1      48.164   3.116 103.396  1.00  0.00     0.071 C 
HETATM    5  C5  UNL     1      48.950   1.903 103.979  1.00  0.00    -0.029 C 
HETATM    6  C6  UNL     1      47.954   0.715 104.160  1.00  0.00     0.017 C 
HETATM    7  C7  UNL     1      49.031   4.367 103.373  1.00  0.00     0.132 C 
HETATM    8  C8  UNL     1      49.663   4.761 104.686  1.00  0.00     0.084 C 
HETATM    9  C9  UNL     1      50.449   3.590 105.279  1.00  0.00     0.002 C 
HETATM   10  C10 UNL     1      49.556   2.310 105.377  1.00  0.00    -0.001 C 
HETATM   11  C11 UNL     1      50.969   3.924 106.681  1.00  0.00     0.006 C 
HETATM   12  C12 UNL     1      51.823   2.781 107.266  1.00  0.00     0.021 C 
HETATM   13  C13 UNL     1      50.914   1.570 107.458  1.00  0.00     0.018 C 
HETATM   14  C14 UNL     1      50.274   1.149 106.123  1.00  0.00     0.007 C 
HETATM   15  C15 UNL     1      51.816   5.172 106.902  1.00  0.00     0.013 C 
HETATM   16  C16 UNL     1      52.319   4.992 108.342  1.00  0.00     0.079 C 
HETATM   17  C17 UNL     1      52.295   3.483 108.526  1.00  0.00     0.135 C 
HETATM   18  C18 UNL     1      53.089   2.411 106.468  1.00  0.00     0.024 C 
HETATM   19  C19 UNL     1      50.067   1.458 102.998  1.00  0.00     0.016 C 
HETATM   20  O1  UNL     1      46.670   0.932 100.864  1.00  0.00    -0.298 OA
HETATM   21  O2  UNL     1      49.151   5.074 102.375  1.00  0.00    -0.298 OA
HETATM   22  O3  UNL     1      52.635   2.914 109.554  1.00  0.00    -0.297 OA
ENDROOT
TORSDOF 0
ENDMDL
