MODEL 1
REMARK VINA RESULT:      -7.7      0.000      0.000
REMARK  1 active torsions:
REMARK  status: ('A' for Active; 'I' for Inactive)
REMARK    1  A    between atoms: C17_17  and  O1_21 
ROOT
HETATM    1  C1  UNL     1      51.745   2.463 108.393  1.00  0.00    -0.014 A 
HETATM    2  C2  UNL     1      51.770   1.126 108.845  1.00  0.00     0.062 A 
HETATM    3  C3  UNL     1      51.104  -0.002 108.143  1.00  0.00     0.067 C 
HETATM    4  C4  UNL     1      50.079   0.531 107.108  1.00  0.00     0.000 C 
HETATM    5  C5  UNL     1      50.626   1.727 106.231  1.00  0.00    -0.032 C 
HETATM    6  C6  UNL     1      51.013   2.919 107.179  1.00  0.00     0.052 C 
HETATM    7  C7  UNL     1      49.533  -0.624 106.261  1.00  0.00     0.006 C 
HETATM    8  C8  UNL     1      48.447  -0.154 105.301  1.00  0.00     0.006 C 
HETATM    9  C9  UNL     1      48.924   0.994 104.402  1.00  0.00    -0.005 C 
HETATM   10  C10 UNL     1      49.475   2.179 105.257  1.00  0.00    -0.001 C 
HETATM   11  C11 UNL     1      47.786   1.516 103.517  1.00  0.00     0.001 C 
HETATM   12  C12 UNL     1      48.237   2.639 102.564  1.00  0.00    -0.014 C 
HETATM   13  C13 UNL     1      48.706   3.826 103.417  1.00  0.00     0.012 C 
HETATM   14  C14 UNL     1      49.829   3.416 104.386  1.00  0.00     0.007 C 
HETATM   15  C15 UNL     1      47.050   0.543 102.599  1.00  0.00     0.008 C 
HETATM   16  C16 UNL     1      46.367   1.451 101.562  1.00  0.00     0.033 C 
HETATM   17  C17 UNL     1      46.912   2.872 101.811  1.00  0.00     0.126 C 
HETATM   18  C18 UNL     1      52.496   3.153 109.313  1.00  0.00     0.118 A 
HETATM   19  N1  UNL     1      52.915   2.226 110.225  1.00  0.00    -0.289 N 
HETATM   20  N2  UNL     1      52.488   0.977 109.961  1.00  0.00    -0.179 NA
HETATM   21  C19 UNL     1      49.364   2.235 101.580  1.00  0.00     0.018 C 
HETATM   22  C20 UNL     1      51.893   1.306 105.441  1.00  0.00     0.016 C 
HETATM   23  H23 UNL     1      53.491   2.371 111.047  1.00  0.00     0.188 HD
ENDROOT
BRANCH  17  24
HETATM   24  O1  UNL     1      47.050   3.614 100.614  1.00  0.00    -0.395 OA
HETATM   25  H24 UNL     1      47.816   4.205 100.702  1.00  0.00     0.210 HD
ENDBRANCH  17  24
TORSDOF 1
ENDMDL
