MODEL 1
REMARK VINA RESULT:      -8.4      0.000      0.000
REMARK  6 active torsions:
REMARK  status: ('A' for Active; 'I' for Inactive)
REMARK    1  A    between atoms: C1_1  and  O1_11 
REMARK    2  A    between atoms: C2_2  and  O2_13 
REMARK    3  A    between atoms: C7_7  and  O3_15 
REMARK    4  A    between atoms: O3_15  and  C12_16 
REMARK    5  A    between atoms: C15_19  and  N2_23 
REMARK       I    between atoms: N2_23  and  C18_24 
REMARK       I    between atoms: C18_24  and  N3_25 
REMARK    6  A    between atoms: N3_25  and  C19_27 
ROOT
HETATM    1  C12 UNL     1      52.263   9.697  98.407  1.00  0.00     0.079 A 
HETATM    2  C13 UNL     1      53.052  10.204  99.436  1.00  0.00     0.081 A 
HETATM    3  C14 UNL     1      52.904   9.692 100.720  1.00  0.00     0.145 A 
HETATM    4  C15 UNL     1      51.973   8.685 101.013  1.00  0.00     0.075 A 
HETATM    5  C16 UNL     1      51.175   8.199  99.978  1.00  0.00     0.035 A 
HETATM    6  C17 UNL     1      51.314   8.708  98.680  1.00  0.00     0.040 A 
HETATM    7  F1  UNL     1      53.677  10.179 101.704  1.00  0.00    -0.204 F 
ENDROOT
BRANCH   1   8
HETATM    8  O3  UNL     1      52.435  10.269  97.165  1.00  0.00    -0.310 OA
BRANCH   8   9
HETATM    9  C7  UNL     1      52.031  11.579  97.015  1.00  0.00     0.090 A 
HETATM   10  C4  UNL     1      52.968  12.539  96.582  1.00  0.00     0.029 A 
HETATM   11  C3  UNL     1      54.327  12.242  96.332  1.00  0.00     0.056 A 
HETATM   12  C5  UNL     1      52.497  13.852  96.406  1.00  0.00     0.072 A 
HETATM   13  C2  UNL     1      55.213  13.239  95.914  1.00  0.00     0.102 A 
HETATM   14  C1  UNL     1      54.735  14.548  95.740  1.00  0.00     0.103 A 
HETATM   15  C6  UNL     1      53.388  14.831  95.990  1.00  0.00     0.072 A 
HETATM   16  N1  UNL     1      51.215  14.196  96.625  1.00  0.00    -0.260 NA
HETATM   17  C9  UNL     1      50.346  13.239  97.016  1.00  0.00     0.120 A 
HETATM   18  C8  UNL     1      50.698  11.923  97.217  1.00  0.00     0.057 A 
BRANCH  13  19
HETATM   19  O2  UNL     1      56.544  13.037  95.652  1.00  0.00    -0.353 OA
HETATM   20  C11 UNL     1      56.885  12.100  94.640  1.00  0.00     0.210 C 
ENDBRANCH  13  19
BRANCH  14  21
HETATM   21  O1  UNL     1      55.661  15.476  95.328  1.00  0.00    -0.353 OA
HETATM   22  C10 UNL     1      55.306  16.849  95.426  1.00  0.00     0.210 C 
ENDBRANCH  14  21
ENDBRANCH   8   9
ENDBRANCH   1   8
BRANCH   4  23
HETATM   23  N2  UNL     1      51.913   8.241 102.353  1.00  0.00    -0.306 N 
HETATM   24  C18 UNL     1      52.251   6.996 102.853  1.00  0.00     0.325 C 
HETATM   25  N3  UNL     1      52.062   6.954 104.224  1.00  0.00    -0.306 N 
HETATM   26  O4  UNL     1      52.659   6.061 102.178  1.00  0.00    -0.247 OA
HETATM   27  H15 UNL     1      51.749   7.802 104.678  1.00  0.00     0.171 HD
HETATM   28  H14 UNL     1      51.564   8.928 103.007  1.00  0.00     0.171 HD
BRANCH  25  29
HETATM   29  C19 UNL     1      52.274   5.866 105.097  1.00  0.00     0.075 A 
HETATM   30  C20 UNL     1      53.590   5.653 105.538  1.00  0.00     0.146 A 
HETATM   31  C21 UNL     1      53.918   4.614 106.400  1.00  0.00     0.086 A 
HETATM   32  F2  UNL     1      54.565   6.475 105.113  1.00  0.00    -0.204 F 
HETATM   33  C22 UNL     1      52.909   3.770 106.834  1.00  0.00     0.119 A 
HETATM   34  C23 UNL     1      51.594   3.952 106.418  1.00  0.00     0.044 A 
HETATM   35  F3  UNL     1      53.203   2.762 107.666  1.00  0.00    -0.206 F 
HETATM   36  C24 UNL     1      51.274   5.002 105.548  1.00  0.00     0.036 A 
ENDBRANCH  25  29
ENDBRANCH   4  23
TORSDOF 6
ENDMDL
