MODEL 1
REMARK VINA RESULT:      -6.8      0.000      0.000
REMARK  4 active torsions:
REMARK  status: ('A' for Active; 'I' for Inactive)
REMARK    1  A    between atoms: C14_14  and  O4_25 
REMARK    2  A    between atoms: C17_17  and  C22_26 
REMARK    3  A    between atoms: C22_26  and  C24_29 
REMARK    4  A    between atoms: C24_29  and  O6_31 
ROOT
HETATM    1  C1  UNL     1      47.022  -5.947 101.129  1.00  0.00     0.052 A 
HETATM    2  C2  UNL     1      47.102  -5.787 102.594  1.00  0.00     0.172 A 
HETATM    3  C3  UNL     1      46.435  -4.608 103.182  1.00  0.00     0.058 A 
HETATM    4  C4  UNL     1      45.759  -3.722 102.429  1.00  0.00    -0.061 A 
HETATM    5  C5  UNL     1      45.606  -3.841 100.901  1.00  0.00     0.036 A 
HETATM    6  C6  UNL     1      46.348  -5.069 100.375  1.00  0.00    -0.006 A 
HETATM    7  C7  UNL     1      45.145  -2.498 103.059  1.00  0.00     0.036 C 
HETATM    8  C8  UNL     1      45.702  -1.230 102.419  1.00  0.00     0.013 C 
HETATM    9  C9  UNL     1      45.546  -1.231 100.887  1.00  0.00     0.035 C 
HETATM   10  C10 UNL     1      46.184  -2.514 100.256  1.00  0.00     0.147 C 
HETATM   11  C11 UNL     1      46.223   0.007 100.278  1.00  0.00     0.007 C 
HETATM   12  C12 UNL     1      46.051   0.117  98.744  1.00  0.00     0.004 C 
HETATM   13  C13 UNL     1      46.719  -1.129  98.125  1.00  0.00     0.048 C 
HETATM   14  C14 UNL     1      46.181  -2.463  98.695  1.00  0.00     0.160 C 
HETATM   15  C15 UNL     1      45.826   1.393 100.781  1.00  0.00     0.041 C 
HETATM   16  C16 UNL     1      46.352   2.349  99.691  1.00  0.00     0.168 C 
HETATM   17  C17 UNL     1      46.767   1.483  98.490  1.00  0.00     0.160 C 
HETATM   18  O1  UNL     1      47.534   3.004 100.148  1.00  0.00    -0.347 OA
HETATM   19  C18 UNL     1      48.635   2.428  99.450  1.00  0.00     0.159 C 
HETATM   20  O2  UNL     1      48.187   1.361  98.610  1.00  0.00    -0.334 OA
HETATM   21  C19 UNL     1      49.281   3.511  98.592  1.00  0.00     0.078 C 
HETATM   22  C20 UNL     1      49.636   1.879 100.457  1.00  0.00     0.078 C 
HETATM   23  O3  UNL     1      47.698  -6.597 103.291  1.00  0.00    -0.289 OA
HETATM   24  C21 UNL     1      44.110  -4.085 100.594  1.00  0.00     0.028 C 
HETATM   25  F1  UNL     1      47.529  -2.471 100.603  1.00  0.00    -0.238 F 
HETATM   26  C23 UNL     1      44.564   0.214  98.305  1.00  0.00     0.019 C 
ENDROOT
BRANCH  17  27
HETATM   27  C22 UNL     1      46.415   2.127  97.142  1.00  0.00     0.188 C 
HETATM   28  O5  UNL     1      45.749   3.162  97.049  1.00  0.00    -0.292 OA
BRANCH  27  29
HETATM   29  C24 UNL     1      46.906   1.422  95.882  1.00  0.00     0.245 C 
BRANCH  29  30
HETATM   30  O6  UNL     1      48.313   1.231  95.917  1.00  0.00    -0.393 OA
HETATM   31  H31 UNL     1      48.551   1.120  96.860  1.00  0.00     0.209 HD
ENDBRANCH  29  30
ENDBRANCH  27  29
ENDBRANCH  17  27
BRANCH  14  32
HETATM   32  O4  UNL     1      44.894  -2.721  98.146  1.00  0.00    -0.392 OA
HETATM   33  H25 UNL     1      44.396  -1.883  98.142  1.00  0.00     0.210 HD
ENDBRANCH  14  32
TORSDOF 4
ENDMDL
