MODEL 1
REMARK VINA RESULT:      -6.9      0.000      0.000
REMARK  0 active torsions:
REMARK  status: ('A' for Active; 'I' for Inactive)
ROOT
HETATM    1  C1  UNL     1      52.748   4.371 108.681  1.00  0.00     0.084 C 
HETATM    2  C2  UNL     1      52.338   3.395 109.749  1.00  0.00     0.149 C 
HETATM    3  C3  UNL     1      51.740   2.108 109.322  1.00  0.00     0.054 C 
HETATM    4  C4  UNL     1      51.438   1.836 108.036  1.00  0.00    -0.064 C 
HETATM    5  C5  UNL     1      51.589   2.889 106.916  1.00  0.00    -0.016 C 
HETATM    6  C6  UNL     1      51.765   4.314 107.526  1.00  0.00     0.022 C 
HETATM    7  C7  UNL     1      50.963   0.452 107.587  1.00  0.00     0.012 C 
HETATM    8  C8  UNL     1      49.676   0.559 106.759  1.00  0.00     0.014 C 
HETATM    9  C9  UNL     1      49.862   1.482 105.550  1.00  0.00    -0.004 C 
HETATM   10  C10 UNL     1      50.289   2.905 106.024  1.00  0.00     0.002 C 
HETATM   11  C11 UNL     1      48.572   1.610 104.734  1.00  0.00     0.006 C 
HETATM   12  C12 UNL     1      48.777   2.482 103.479  1.00  0.00     0.021 C 
HETATM   13  C13 UNL     1      49.091   3.900 103.944  1.00  0.00     0.018 C 
HETATM   14  C14 UNL     1      50.341   3.919 104.843  1.00  0.00     0.007 C 
HETATM   15  C15 UNL     1      47.873   0.360 104.209  1.00  0.00     0.013 C 
HETATM   16  C16 UNL     1      46.812   0.938 103.260  1.00  0.00     0.079 C 
HETATM   17  C17 UNL     1      47.420   2.264 102.835  1.00  0.00     0.135 C 
HETATM   18  O1  UNL     1      52.550   3.598 110.941  1.00  0.00    -0.293 OA
HETATM   19  C18 UNL     1      52.852   2.546 106.093  1.00  0.00     0.020 C 
HETATM   20  C19 UNL     1      49.826   1.977 102.471  1.00  0.00     0.024 C 
HETATM   21  O2  UNL     1      46.887   3.039 102.053  1.00  0.00    -0.297 OA
HETATM   22  C20 UNL     1      50.752  -0.584 108.701  1.00  0.00     0.015 C 
ENDROOT
TORSDOF 0
ENDMDL
