MODEL 1
REMARK VINA RESULT:      -8.8      0.000      0.000
REMARK  7 active torsions:
REMARK  status: ('A' for Active; 'I' for Inactive)
REMARK    1  A    between atoms: C1_1  and  S1_7 
REMARK    2  A    between atoms: C2_3  and  N3_13 
REMARK    3  A    between atoms: C4_5  and  C11_17 
REMARK    4  A    between atoms: S1_7  and  C5_8 
REMARK    5  A    between atoms: C5_8  and  C6_9 
REMARK    6  A    between atoms: N3_13  and  C8_14 
REMARK    7  A    between atoms: N4_25  and  C19_26 
ROOT
HETATM    1  C11 UNL     1      51.106   7.500 100.840  1.00  0.00    -0.006 A 
HETATM    2  C12 UNL     1      50.704   7.266  99.509  1.00  0.00     0.027 A 
HETATM    3  C13 UNL     1      51.086   8.143  98.471  1.00  0.00    -0.007 A 
HETATM    4  C14 UNL     1      51.870   9.257  98.772  1.00  0.00     0.044 A 
HETATM    5  C15 UNL     1      52.302   9.512 100.081  1.00  0.00     0.031 A 
HETATM    6  C16 UNL     1      51.910   8.623 101.092  1.00  0.00     0.016 A 
HETATM    7  C17 UNL     1      50.850   8.159  97.073  1.00  0.00     0.031 A 
HETATM    8  C18 UNL     1      51.488   9.260  96.552  1.00  0.00     0.092 A 
HETATM    9  N4  UNL     1      52.090   9.938  97.583  1.00  0.00    -0.351 N 
ENDROOT
BRANCH   1  10
HETATM   10  C4  UNL     1      50.723   6.591 101.939  1.00  0.00     0.073 A 
HETATM   11  C3  UNL     1      49.747   5.613 101.808  1.00  0.00     0.082 A 
HETATM   12  C2  UNL     1      49.485   4.803 102.900  1.00  0.00     0.129 A 
HETATM   13  N1  UNL     1      50.132   4.944 104.062  1.00  0.00    -0.202 NA
HETATM   14  C1  UNL     1      51.033   5.940 104.096  1.00  0.00     0.249 A 
HETATM   15  N2  UNL     1      51.383   6.767 103.099  1.00  0.00    -0.218 NA
BRANCH  12  16
HETATM   16  N3  UNL     1      48.500   3.805 102.865  1.00  0.00    -0.370 N 
HETATM   17  H9  UNL     1      47.674   4.204 102.421  1.00  0.00     0.161 HD
BRANCH  16  18
HETATM   18  C8  UNL     1      48.298   2.902 103.994  1.00  0.00     0.083 A 
HETATM   19  C9  UNL     1      47.593   1.586 103.827  1.00  0.00     0.027 A 
HETATM   20  C10 UNL     1      46.916   2.708 104.556  1.00  0.00     0.027 A 
ENDBRANCH  16  18
ENDBRANCH  12  16
BRANCH  14  21
HETATM   21  S1  UNL     1      51.927   6.141 105.628  1.00  0.00     0.211 S 
HETATM   22  O1  UNL     1      51.077   6.861 106.564  1.00  0.00    -0.220 OA
HETATM   23  O2  UNL     1      53.254   6.663 105.342  1.00  0.00    -0.220 OA
BRANCH  21  24
HETATM   24  C5  UNL     1      52.089   4.481 106.248  1.00  0.00     0.148 C 
BRANCH  24  25
HETATM   25  C6  UNL     1      52.361   4.332 107.741  1.00  0.00     0.011 C 
HETATM   26  C7  UNL     1      52.431   2.892 108.223  1.00  0.00     0.006 C 
ENDBRANCH  24  25
ENDBRANCH  21  24
ENDBRANCH  14  21
ENDBRANCH   1  10
BRANCH   9  27
HETATM   27  C19 UNL     1      52.895  11.158  97.460  1.00  0.00     0.094 C 
HETATM   28  C20 UNL     1      52.339  12.366  98.224  1.00  0.00     0.066 C 
HETATM   29  C21 UNL     1      53.024  13.682  97.813  1.00  0.00     0.153 C 
HETATM   30  N5  UNL     1      53.005  13.927  96.366  1.00  0.00     0.101 N 
HETATM   31  C26 UNL     1      54.498  13.701  98.259  1.00  0.00     0.048 C 
HETATM   32  C27 UNL     1      52.303  14.852  98.514  1.00  0.00     0.048 C 
HETATM   33  C22 UNL     1      52.704  12.807  95.467  1.00  0.00     0.153 C 
HETATM   34  H23 UNL     1      52.443  14.743  96.124  1.00  0.00     0.317 HD
HETATM   35  C23 UNL     1      53.243  11.464  95.995  1.00  0.00     0.066 C 
HETATM   36  C24 UNL     1      51.196  12.746  95.164  1.00  0.00     0.048 C 
HETATM   37  C25 UNL     1      53.423  13.122  94.139  1.00  0.00     0.048 C 
ENDBRANCH   9  27
TORSDOF 7
ENDMDL
