MODEL 1
REMARK VINA RESULT:      -8.6      0.000      0.000
REMARK  3 active torsions:
REMARK  status: ('A' for Active; 'I' for Inactive)
REMARK    1  A    between atoms: C10_11  and  N2_12 
REMARK    2  A    between atoms: N2_12  and  C11_13 
REMARK    3  A    between atoms: N2_12  and  C12_14 
ROOT
HETATM    1  C1  UNL     1      52.259   2.953 108.441  1.00  0.00     0.038 A 
HETATM    2  C2  UNL     1      52.280   2.082 109.531  1.00  0.00     0.005 A 
HETATM    3  C3  UNL     1      51.741   0.823 109.381  1.00  0.00     0.030 A 
HETATM    4  C4  UNL     1      51.199   0.466 108.152  1.00  0.00     0.045 A 
HETATM    5  C5  UNL     1      51.188   1.340 107.087  1.00  0.00     0.032 A 
HETATM    6  C6  UNL     1      51.721   2.598 107.224  1.00  0.00     0.081 A 
HETATM    7  N1  UNL     1      50.634  -0.681 107.789  1.00  0.00    -0.365 N 
HETATM    8  C7  UNL     1      50.255  -0.587 106.520  1.00  0.00     0.096 A 
HETATM    9  C8  UNL     1      50.587   0.663 106.056  1.00  0.00    -0.026 A 
HETATM   10  C9  UNL     1      50.317   1.167 104.650  1.00  0.00     0.060 A 
HETATM   11  C10 UNL     1      49.135   2.050 104.623  1.00  0.00     0.122 A 
HETATM   12  O1  UNL     1      51.697   3.456 106.133  1.00  0.00    -0.355 OA
HETATM   13  C17 UNL     1      52.255   4.755 106.297  1.00  0.00     0.210 C 
HETATM   14 CL1  UNL     1      50.317   2.529 105.531  1.00  0.00    -0.145 Cl
HETATM   15  H4  UNL     1      50.472  -1.571 108.343  1.00  0.00     0.165 HD
HETATM   16  H27 UNL     1      49.554   2.817 104.434  1.00  0.00     0.145 HD
ENDROOT
BRANCH  11  17
HETATM   17  N2  UNL     1      48.715   2.605 103.389  1.00  0.00    -0.405 N 
BRANCH  17  18
HETATM   18  C11 UNL     1      47.750   1.785 102.740  1.00  0.00     0.071 C 
HETATM   19  C15 UNL     1      48.019   1.244 101.402  1.00  0.00     0.031 C 
HETATM   20  C16 UNL     1      47.021   0.794 103.606  1.00  0.00     0.031 C 
ENDBRANCH  17  18
BRANCH  17  21
HETATM   21  C12 UNL     1      48.588   3.992 103.290  1.00  0.00     0.071 C 
HETATM   22  C13 UNL     1      49.510   4.664 102.301  1.00  0.00     0.031 C 
HETATM   23  C14 UNL     1      47.152   4.485 103.138  1.00  0.00     0.031 C 
ENDBRANCH  17  21
ENDBRANCH  11  17
TORSDOF 3
ENDMDL
