MODEL 1
REMARK VINA RESULT:      -8.6      0.000      0.000
REMARK  6 active torsions:
REMARK  status: ('A' for Active; 'I' for Inactive)
REMARK    1  A    between atoms: C3_4  and  O2_11 
REMARK    2  A    between atoms: C5_6  and  C6_7 
REMARK       I    between atoms: C6_7  and  N2_9 
REMARK    3  A    between atoms: O2_11  and  C8_12 
REMARK    4  A    between atoms: C11_15  and  N3_19 
REMARK       I    between atoms: N3_19  and  C14_20 
REMARK       I    between atoms: C14_20  and  N4_22 
REMARK    5  A    between atoms: N4_22  and  C15_23 
REMARK    6  A    between atoms: C17_25  and  C21_30 
ROOT
HETATM    1  C8  UNL     1      52.250   9.635  98.439  1.00  0.00     0.079 A 
HETATM    2  C9  UNL     1      52.711  10.245  99.606  1.00  0.00     0.040 A 
HETATM    3  C10 UNL     1      52.360   9.734 100.861  1.00  0.00     0.035 A 
HETATM    4  C11 UNL     1      51.525   8.619 100.953  1.00  0.00     0.075 A 
HETATM    5  C12 UNL     1      51.055   8.036  99.767  1.00  0.00     0.145 A 
HETATM    6  C13 UNL     1      51.401   8.533  98.515  1.00  0.00     0.081 A 
HETATM    7  F1  UNL     1      50.244   6.966  99.839  1.00  0.00    -0.204 F 
ENDROOT
BRANCH   4   8
HETATM    8  N3  UNL     1      51.116   8.020 102.164  1.00  0.00    -0.306 N 
HETATM    9  C14 UNL     1      51.657   6.907 102.786  1.00  0.00     0.325 C 
HETATM   10  O3  UNL     1      52.630   6.289 102.381  1.00  0.00    -0.247 OA
HETATM   11  N4  UNL     1      50.936   6.591 103.928  1.00  0.00    -0.309 N 
HETATM   12  H12 UNL     1      50.059   7.076 104.043  1.00  0.00     0.170 HD
HETATM   13  H11 UNL     1      50.403   8.532 102.665  1.00  0.00     0.171 HD
BRANCH  11  14
HETATM   14  C15 UNL     1      51.211   5.577 104.868  1.00  0.00     0.037 A 
HETATM   15  C16 UNL     1      50.521   4.363 104.938  1.00  0.00     0.047 A 
HETATM   16  C17 UNL     1      50.851   3.384 105.901  1.00  0.00     0.071 A 
HETATM   17  C18 UNL     1      51.894   3.645 106.795  1.00  0.00     0.049 A 
HETATM   18  C19 UNL     1      52.593   4.851 106.726  1.00  0.00     0.027 A 
HETATM   19 CL1  UNL     1      52.373   2.515 108.008  1.00  0.00    -0.083 Cl
HETATM   20  C20 UNL     1      52.254   5.810 105.768  1.00  0.00     0.031 A 
BRANCH  16  21
HETATM   21  C21 UNL     1      50.084   2.089 105.947  1.00  0.00     0.419 C 
HETATM   22  F2  UNL     1      50.803   1.030 105.483  1.00  0.00    -0.166 F 
HETATM   23  F3  UNL     1      48.945   2.106 105.197  1.00  0.00    -0.166 F 
HETATM   24  F4  UNL     1      49.680   1.757 107.204  1.00  0.00    -0.166 F 
ENDBRANCH  16  21
ENDBRANCH  11  14
ENDBRANCH   4   8
BRANCH   1  25
HETATM   25  O2  UNL     1      52.616  10.209  97.243  1.00  0.00    -0.311 OA
BRANCH  25  26
HETATM   26  C3  UNL     1      52.270  11.526  97.044  1.00  0.00     0.079 A 
HETATM   27  C2  UNL     1      50.922  11.847  97.151  1.00  0.00     0.056 A 
HETATM   28  C1  UNL     1      50.557  13.169  96.973  1.00  0.00     0.120 A 
HETATM   29  N1  UNL     1      51.437  14.160  96.722  1.00  0.00    -0.255 NA
HETATM   30  C5  UNL     1      52.748  13.820  96.653  1.00  0.00     0.126 A 
HETATM   31  C4  UNL     1      53.213  12.522  96.813  1.00  0.00     0.074 A 
BRANCH  30  32
HETATM   32  C6  UNL     1      53.710  14.936  96.384  1.00  0.00     0.269 C 
HETATM   33  O1  UNL     1      53.316  16.080  96.186  1.00  0.00    -0.266 OA
HETATM   34  N2  UNL     1      55.053  14.588  96.389  1.00  0.00    -0.360 N 
HETATM   35  C7  UNL     1      56.064  15.610  96.278  1.00  0.00     0.149 C 
HETATM   36  H4  UNL     1      55.318  13.712  96.820  1.00  0.00     0.162 HD
ENDBRANCH  30  32
ENDBRANCH  25  26
ENDBRANCH   1  25
TORSDOF 6
ENDMDL
