MODEL 1
REMARK VINA RESULT:      -8.0      0.000      0.000
REMARK  10 active torsions:
REMARK  status: ('A' for Active; 'I' for Inactive)
REMARK    1  A    between atoms: C2_2  and  C6_8 
REMARK    2  A    between atoms: N2_4  and  C4_6 
REMARK    3  A    between atoms: C3_5  and  C15_18 
REMARK    4  A    between atoms: C4_6  and  C5_7 
REMARK    5  A    between atoms: C5_7  and  C12_15 
REMARK    6  A    between atoms: C12_15  and  C13_16 
REMARK    7  A    between atoms: C13_16  and  C14_17 
REMARK       I    between atoms: C15_18  and  N3_19 
REMARK    8  A    between atoms: N3_19  and  C16_21 
REMARK    9  A    between atoms: C16_21  and  C17_22 
REMARK   10  A    between atoms: C16_21  and  C18_23 
REMARK       I    between atoms: C17_22  and  N4_28 
ROOT
HETATM    1  C1  UNL     1      48.846   1.634 105.106  1.00  0.00     0.071 A 
HETATM    2  C2  UNL     1      49.914   2.334 105.724  1.00  0.00     0.089 A 
HETATM    3  N1  UNL     1      50.181   3.455 105.034  1.00  0.00    -0.171 NA
HETATM    4  N2  UNL     1      49.333   3.436 103.988  1.00  0.00    -0.264 N 
HETATM    5  C3  UNL     1      48.448   2.390 104.019  1.00  0.00     0.122 A 
ENDROOT
BRANCH   5   6
HETATM    6  C15 UNL     1      47.391   2.084 103.092  1.00  0.00     0.270 C 
HETATM    7  N3  UNL     1      47.218   0.745 102.827  1.00  0.00    -0.342 N 
HETATM    8  H16 UNL     1      47.702   0.070 103.401  1.00  0.00     0.163 HD
HETATM    9  O1  UNL     1      46.725   2.948 102.531  1.00  0.00    -0.266 OA
BRANCH   7  10
HETATM   10  C16 UNL     1      46.075   0.267 102.049  1.00  0.00     0.184 C 
BRANCH  10  11
HETATM   11  C17 UNL     1      45.425  -0.856 102.887  1.00  0.00     0.239 C 
HETATM   12  O2  UNL     1      46.062  -1.612 103.618  1.00  0.00    -0.271 OA
HETATM   13  N4  UNL     1      44.075  -1.000 102.753  1.00  0.00    -0.368 N 
HETATM   14  H27 UNL     1      43.641  -1.659 103.388  1.00  0.00     0.159 HD
HETATM   15  H28 UNL     1      43.506  -0.209 102.475  1.00  0.00     0.159 HD
ENDBRANCH  10  11
BRANCH  10  16
HETATM   16  C18 UNL     1      46.474  -0.182 100.610  1.00  0.00    -0.022 C 
HETATM   17  C19 UNL     1      47.770   0.489 100.118  1.00  0.00     0.017 C 
HETATM   18  C20 UNL     1      45.337   0.179  99.630  1.00  0.00     0.017 C 
HETATM   19  C21 UNL     1      46.668  -1.711 100.558  1.00  0.00     0.017 C 
ENDBRANCH  10  16
ENDBRANCH   7  10
ENDBRANCH   5   6
BRANCH   4  20
HETATM   20  C4  UNL     1      49.521   4.433 102.944  1.00  0.00     0.152 C 
BRANCH  20  21
HETATM   21  C5  UNL     1      50.107   5.735 103.490  1.00  0.00     0.022 C 
BRANCH  21  22
HETATM   22  C12 UNL     1      50.851   6.559 102.436  1.00  0.00     0.004 C 
BRANCH  22  23
HETATM   23  C13 UNL     1      52.222   7.045 102.896  1.00  0.00     0.031 C 
BRANCH  23  24
HETATM   24  C14 UNL     1      52.532   6.589 104.311  1.00  0.00     0.222 C 
HETATM   25  F2  UNL     1      53.530   7.365 104.809  1.00  0.00    -0.255 F 
ENDBRANCH  23  24
ENDBRANCH  22  23
ENDBRANCH  21  22
ENDBRANCH  20  21
ENDBRANCH   4  20
BRANCH   2  26
HETATM   26  C6  UNL     1      50.670   1.975 106.930  1.00  0.00    -0.005 A 
HETATM   27  C7  UNL     1      50.440   0.745 107.573  1.00  0.00     0.017 A 
HETATM   28  C8  UNL     1      51.154   0.391 108.721  1.00  0.00     0.043 A 
HETATM   29  C9  UNL     1      52.103   1.264 109.233  1.00  0.00     0.116 A 
HETATM   30  C10 UNL     1      52.351   2.485 108.619  1.00  0.00     0.043 A 
HETATM   31  F1  UNL     1      52.789   0.927 110.331  1.00  0.00    -0.206 F 
HETATM   32  C11 UNL     1      51.636   2.841 107.470  1.00  0.00     0.017 A 
ENDBRANCH   2  26
TORSDOF 10
ENDMDL
