MODEL 1
REMARK VINA RESULT:      -7.5      0.000      0.000
REMARK  10 active torsions:
REMARK  status: ('A' for Active; 'I' for Inactive)
REMARK    1  A    between atoms: C7_7  and  C10_13 
REMARK    2  A    between atoms: N2_9  and  C8_10 
REMARK    3  A    between atoms: C8_10  and  C9_11 
REMARK    4  A    between atoms: C9_11  and  C16_22 
REMARK       I    between atoms: C10_13  and  N3_14 
REMARK    5  A    between atoms: N3_14  and  C11_15 
REMARK    6  A    between atoms: C11_15  and  C12_16 
REMARK    7  A    between atoms: C11_15  and  C13_17 
REMARK    8  A    between atoms: C13_17  and  O2_20 
REMARK    9  A    between atoms: C16_22  and  C17_23 
REMARK   10  A    between atoms: C17_23  and  C18_24 
ROOT
HETATM    1  C1  UNL     1      50.476   0.540 107.490  1.00  0.00     0.016 A 
HETATM    2  C2  UNL     1      50.773   1.761 106.853  1.00  0.00     0.028 A 
HETATM    3  C3  UNL     1      51.655   2.646 107.471  1.00  0.00     0.065 A 
HETATM    4  C4  UNL     1      52.253   2.371 108.708  1.00  0.00     0.032 A 
HETATM    5  C5  UNL     1      51.941   1.155 109.323  1.00  0.00     0.002 A 
HETATM    6  C6  UNL     1      51.067   0.251 108.724  1.00  0.00     0.001 A 
HETATM    7  C7  UNL     1      50.388   2.400 105.640  1.00  0.00     0.157 A 
HETATM    8  N1  UNL     1      50.984   3.604 105.507  1.00  0.00    -0.166 NA
HETATM    9  N2  UNL     1      51.739   3.718 106.618  1.00  0.00    -0.268 N 
ENDROOT
BRANCH   7  10
HETATM   10  C10 UNL     1      49.472   1.888 104.609  1.00  0.00     0.273 C 
HETATM   11  O1  UNL     1      48.819   0.856 104.730  1.00  0.00    -0.266 OA
HETATM   12  N3  UNL     1      49.437   2.675 103.475  1.00  0.00    -0.341 N 
HETATM   13  H9  UNL     1      50.195   3.354 103.433  1.00  0.00     0.163 HD
BRANCH  12  14
HETATM   14  C11 UNL     1      48.827   2.211 102.234  1.00  0.00     0.186 C 
BRANCH  14  15
HETATM   15  C12 UNL     1      47.574   3.043 101.888  1.00  0.00     0.010 C 
HETATM   16  C14 UNL     1      46.989   3.711 103.141  1.00  0.00     0.012 C 
HETATM   17  C15 UNL     1      46.487   2.192 101.224  1.00  0.00     0.012 C 
ENDBRANCH  14  15
BRANCH  14  18
HETATM   18  C13 UNL     1      49.895   2.345 101.146  1.00  0.00     0.163 C 
HETATM   19  O3  UNL     1      50.213   1.494 100.328  1.00  0.00    -0.648 OA
BRANCH  18  20
HETATM   20  O2  UNL     1      50.525   3.537 101.164  1.00  0.00    -0.775 OA
HETATM   21  H18 UNL     1      50.251   3.963 100.323  1.00  0.00     0.167 HD
ENDBRANCH  18  20
ENDBRANCH  14  18
ENDBRANCH  12  14
ENDBRANCH   7  10
BRANCH   9  22
HETATM   22  C8  UNL     1      52.537   4.919 106.802  1.00  0.00     0.151 C 
BRANCH  22  23
HETATM   23  C9  UNL     1      53.943   4.760 106.225  1.00  0.00     0.022 C 
BRANCH  23  24
HETATM   24  C16 UNL     1      54.319   5.861 105.230  1.00  0.00     0.004 C 
BRANCH  24  25
HETATM   25  C17 UNL     1      53.219   6.904 105.037  1.00  0.00     0.031 C 
BRANCH  25  26
HETATM   26  C18 UNL     1      52.553   6.772 103.678  1.00  0.00     0.222 C 
HETATM   27  F1  UNL     1      51.226   6.547 103.867  1.00  0.00    -0.255 F 
ENDBRANCH  25  26
ENDBRANCH  24  25
ENDBRANCH  23  24
ENDBRANCH  22  23
ENDBRANCH   9  22
TORSDOF 10
ENDMDL
