MODEL 1
REMARK VINA RESULT:      -6.9      0.000      0.000
REMARK  6 active torsions:
REMARK  status: ('A' for Active; 'I' for Inactive)
REMARK    1  A    between atoms: N1_1  and  C4_6 
REMARK    2  A    between atoms: C2_3  and  C11_16 
REMARK    3  A    between atoms: N2_5  and  C5_9 
REMARK    4  A    between atoms: C8_12  and  O3_15 
REMARK    5  A    between atoms: C11_16  and  C12_17 
REMARK    6  A    between atoms: C12_17  and  C13_18 
ROOT
HETATM    1  N1  UNL     1      51.485   2.638 106.236  1.00  0.00    -0.214 N 
HETATM    2  C1  UNL     1      52.758   3.157 106.521  1.00  0.00     0.257 C 
HETATM    3  C2  UNL     1      52.620   4.658 106.585  1.00  0.00     0.174 C 
HETATM    4  C3  UNL     1      51.174   4.930 106.264  1.00  0.00     0.257 C 
HETATM    5  N2  UNL     1      50.570   3.694 105.985  1.00  0.00    -0.214 N 
HETATM    6  O1  UNL     1      53.797   2.561 106.760  1.00  0.00    -0.270 OA
HETATM    7  O2  UNL     1      50.694   6.054 106.205  1.00  0.00    -0.270 OA
ENDROOT
BRANCH   5   8
HETATM    8  C5  UNL     1      49.516   3.588 105.022  1.00  0.00     0.060 A 
HETATM    9  C6  UNL     1      49.590   4.254 103.786  1.00  0.00     0.034 A 
HETATM   10  C7  UNL     1      48.560   4.143 102.846  1.00  0.00     0.039 A 
HETATM   11  C8  UNL     1      47.445   3.369 103.132  1.00  0.00     0.065 A 
HETATM   12  C9  UNL     1      47.344   2.699 104.342  1.00  0.00     0.039 A 
HETATM   13  C10 UNL     1      48.377   2.810 105.282  1.00  0.00     0.034 A 
BRANCH  11  14
HETATM   14  O3  UNL     1      46.465   3.290 102.189  1.00  0.00    -0.361 OA
HETATM   15  H6  UNL     1      45.973   2.463 102.321  1.00  0.00     0.217 HD
ENDBRANCH  11  14
ENDBRANCH   5   8
BRANCH   1  16
HETATM   16  C4  UNL     1      51.073   1.365 106.746  1.00  0.00     0.060 A 
HETATM   17  C15 UNL     1      50.780   0.296 105.883  1.00  0.00     0.031 A 
HETATM   18  C16 UNL     1      50.386  -0.950 106.384  1.00  0.00     0.002 A 
HETATM   19  C17 UNL     1      50.276  -1.148 107.756  1.00  0.00     0.000 A 
HETATM   20  C18 UNL     1      50.560  -0.102 108.627  1.00  0.00     0.002 A 
HETATM   21  C19 UNL     1      50.954   1.143 108.126  1.00  0.00     0.031 A 
ENDBRANCH   1  16
BRANCH   3  22
HETATM   22  C11 UNL     1      53.547   5.360 105.588  1.00  0.00     0.024 C 
BRANCH  22  23
HETATM   23  C12 UNL     1      54.941   5.611 106.172  1.00  0.00     0.001 C 
BRANCH  23  24
HETATM   24  C13 UNL     1      56.074   5.112 105.271  1.00  0.00    -0.005 C 
HETATM   25  C14 UNL     1      56.736   3.838 105.771  1.00  0.00     0.005 C 
ENDBRANCH  23  24
ENDBRANCH  22  23
ENDBRANCH   3  22
TORSDOF 6
ENDMDL
