MODEL 1
REMARK VINA RESULT:      -6.6      0.000      0.000
REMARK  4 active torsions:
REMARK  status: ('A' for Active; 'I' for Inactive)
REMARK    1  A    between atoms: C2_2  and  C3_3 
REMARK    2  A    between atoms: C6_7  and  O4_17 
REMARK    3  A    between atoms: C12_13  and  O2_14 
REMARK    4  A    between atoms: C21_26  and  C22_27 
ROOT
HETATM    1  C3  UNL     1      47.829   1.646 100.357  1.00  0.00     0.164 C 
HETATM    2  O1  UNL     1      49.106   1.537  99.674  1.00  0.00    -0.311 OA
HETATM    3  C4  UNL     1      49.547   2.520  98.847  1.00  0.00     0.262 C 
HETATM    4  C5  UNL     1      49.385   3.959  99.291  1.00  0.00     0.144 C 
HETATM    5  C6  UNL     1      48.299   4.855  98.666  1.00  0.00     0.142 C 
HETATM    6  C7  UNL     1      48.060   4.880  97.110  1.00  0.00     0.040 C 
HETATM    7  C8  UNL     1      47.084   6.041  96.820  1.00  0.00     0.026 C 
HETATM    8  C9  UNL     1      47.436   3.546  96.640  1.00  0.00     0.143 C 
HETATM    9  C10 UNL     1      46.834   3.327  95.247  1.00  0.00     0.081 C 
HETATM   10  C11 UNL     1      47.598   3.937  94.076  1.00  0.00     0.020 C 
HETATM   11  C12 UNL     1      45.317   3.645  95.197  1.00  0.00     0.132 C 
HETATM   12  O3  UNL     1      47.340   2.600  97.427  1.00  0.00    -0.297 OA
HETATM   13  C13 UNL     1      49.398   5.156  96.408  1.00  0.00     0.026 C 
HETATM   14  O5  UNL     1      50.189   2.250  97.835  1.00  0.00    -0.265 OA
HETATM   15  C14 UNL     1      47.130   0.260 100.342  1.00  0.00     0.064 C 
HETATM   16  C15 UNL     1      47.045  -0.417  98.997  1.00  0.00    -0.022 C 
HETATM   17  C16 UNL     1      45.960  -0.634  98.226  1.00  0.00    -0.087 C 
HETATM   18  C17 UNL     1      44.559  -0.136  98.526  1.00  0.00     0.033 C 
HETATM   19  C18 UNL     1      44.313   1.342  98.183  1.00  0.00     0.005 C 
HETATM   20  C19 UNL     1      44.519   1.685  96.699  1.00  0.00     0.007 C 
HETATM   21  C20 UNL     1      44.480   3.209  96.438  1.00  0.00     0.011 C 
HETATM   22  C26 UNL     1      43.022   3.670  96.290  1.00  0.00     0.012 C 
HETATM   23  C27 UNL     1      46.092  -1.464  96.971  1.00  0.00     0.043 C 
ENDROOT
BRANCH   1  24
HETATM   24  C2  UNL     1      48.029   2.102 101.806  1.00  0.00    -0.052 C 
HETATM   25  C1  UNL     1      46.931   2.989 102.333  1.00  0.00     0.046 C 
HETATM   26  C21 UNL     1      49.097   1.708 102.539  1.00  0.00     0.037 C 
BRANCH  26  27
HETATM   27  C22 UNL     1      49.446   2.107 103.865  1.00  0.00     0.064 A 
HETATM   28  C23 UNL     1      49.238   1.327 104.981  1.00  0.00     0.083 A 
HETATM   29  S1  UNL     1      49.822   2.140 106.372  1.00  0.00    -0.085 SA
HETATM   30  C24 UNL     1      50.326   3.449 105.375  1.00  0.00     0.071 A 
HETATM   31  C25 UNL     1      50.988   4.634 105.988  1.00  0.00     0.078 C 
HETATM   32  N1  UNL     1      50.084   3.310 104.088  1.00  0.00    -0.246 NA
ENDBRANCH  26  27
ENDBRANCH   1  24
BRANCH   5  33
HETATM   33  O4  UNL     1      47.055   4.733  99.373  1.00  0.00    -0.394 OA
HETATM   34  H20 UNL     1      46.558   4.009  98.961  1.00  0.00     0.210 HD
ENDBRANCH   5  33
BRANCH  11  35
HETATM   35  O2  UNL     1      44.759   3.051  94.016  1.00  0.00    -0.394 OA
HETATM   36  H16 UNL     1      45.420   3.141  93.306  1.00  0.00     0.210 HD
ENDBRANCH  11  35
TORSDOF 4
ENDMDL
