MODEL 1
REMARK VINA RESULT:      -7.7      0.000      0.000
REMARK  3 active torsions:
REMARK  status: ('A' for Active; 'I' for Inactive)
REMARK    1  A    between atoms: C7_9  and  N2_11 
REMARK    2  A    between atoms: N2_11  and  S1_12 
REMARK    3  A    between atoms: S1_12  and  C8_13 
ROOT
HETATM    1  N2  UNL     1      50.108   1.821 103.472  1.00  0.00    -0.143 NA
HETATM    2  H4  UNL     1      50.169   0.954 102.938  1.00  0.00     0.149 HD
ENDROOT
BRANCH   1   3
HETATM    3  C7  UNL     1      50.497   1.595 104.836  1.00  0.00     0.238 A 
HETATM    4  N1  UNL     1      51.171   2.512 105.494  1.00  0.00    -0.210 NA
HETATM    5  C4  UNL     1      51.299   1.976 106.751  1.00  0.00     0.096 A 
HETATM    6  C3  UNL     1      51.938   2.462 107.899  1.00  0.00     0.058 A 
HETATM    7  C5  UNL     1      50.648   0.753 106.805  1.00  0.00     0.107 A 
HETATM    8  C2  UNL     1      51.886   1.669 109.053  1.00  0.00     0.036 A 
HETATM    9  C1  UNL     1      51.221   0.435 109.071  1.00  0.00     0.026 A 
HETATM   10 CL1  UNL     1      52.659   2.229 110.488  1.00  0.00    -0.084 Cl
HETATM   11  C6  UNL     1      50.575  -0.059 107.930  1.00  0.00     0.041 A 
HETATM   12  O1  UNL     1      50.108   0.516 105.576  1.00  0.00    -0.279 OA
ENDBRANCH   1   3
BRANCH   1  13
HETATM   13  S1  UNL     1      48.553   2.451 103.332  1.00  0.00     0.250 S 
HETATM   14  O2  UNL     1      48.564   3.681 102.576  1.00  0.00    -0.205 OA
HETATM   15  O3  UNL     1      48.025   2.376 104.678  1.00  0.00    -0.205 OA
BRANCH  13  16
HETATM   16  C8  UNL     1      47.684   1.247 102.366  1.00  0.00     0.098 A 
HETATM   17  C9  UNL     1      48.021   1.063 101.021  1.00  0.00     0.057 A 
HETATM   18  C10 UNL     1      47.325   0.113 100.262  1.00  0.00     0.027 A 
HETATM   19 CL2  UNL     1      49.278   1.928 100.216  1.00  0.00    -0.083 Cl
HETATM   20  C11 UNL     1      46.307  -0.649 100.840  1.00  0.00     0.025 A 
HETATM   21  C12 UNL     1      45.987  -0.465 102.181  1.00  0.00     0.035 A 
HETATM   22  C13 UNL     1      46.668   0.477 102.951  1.00  0.00     0.050 A 
HETATM   23 CL3  UNL     1      44.739  -1.409 102.898  1.00  0.00    -0.084 Cl
ENDBRANCH  13  16
ENDBRANCH   1  13
TORSDOF 3
ENDMDL
