MODEL 1
REMARK VINA RESULT:      -7.3      0.000      0.000
REMARK  3 active torsions:
REMARK  status: ('A' for Active; 'I' for Inactive)
REMARK    1  A    between atoms: C1_1  and  O4_20 
REMARK    2  A    between atoms: C8_8  and  O3_12 
REMARK    3  A    between atoms: O3_12  and  C10_13 
ROOT
HETATM    1  C1  UNL     1      52.377   2.112 109.450  1.00  0.00     0.068 A 
HETATM    2  C2  UNL     1      51.945   0.787 109.430  1.00  0.00     0.037 A 
HETATM    3  C3  UNL     1      51.180   0.333 108.353  1.00  0.00     0.021 A 
HETATM    4  C4  UNL     1      50.856   1.210 107.311  1.00  0.00     0.051 A 
HETATM    5  C5  UNL     1      51.292   2.529 107.343  1.00  0.00     0.091 A 
HETATM    6  C6  UNL     1      52.056   2.986 108.415  1.00  0.00     0.074 A 
HETATM    7  C7  UNL     1      50.051   0.756 106.166  1.00  0.00     0.220 A 
HETATM    8  C8  UNL     1      49.747   1.754 105.091  1.00  0.00     0.149 A 
HETATM    9  C9  UNL     1      50.247   2.985 105.282  1.00  0.00     0.184 A 
HETATM   10  O1  UNL     1      51.001   3.424 106.349  1.00  0.00    -0.319 OA
HETATM   11  O2  UNL     1      49.654  -0.404 106.111  1.00  0.00    -0.284 OA
ENDROOT
BRANCH   8  12
HETATM   12  O3  UNL     1      48.992   1.240 104.064  1.00  0.00    -0.305 OA
BRANCH  12  13
HETATM   13  C10 UNL     1      48.720   1.730 102.818  1.00  0.00     0.076 A 
HETATM   14  C11 UNL     1      47.339   1.883 102.603  1.00  0.00     0.038 A 
HETATM   15  C12 UNL     1      46.831   2.369 101.396  1.00  0.00     0.021 A 
HETATM   16  C13 UNL     1      47.711   2.712 100.378  1.00  0.00     0.006 A 
HETATM   17  C14 UNL     1      49.082   2.569 100.570  1.00  0.00     0.021 A 
HETATM   18  I1  UNL     1      46.984   3.437  98.574  1.00  0.00    -0.045 I 
HETATM   19  C15 UNL     1      49.584   2.078 101.787  1.00  0.00     0.038 A 
ENDBRANCH  12  13
ENDBRANCH   8  12
BRANCH   1  20
HETATM   20  O4  UNL     1      53.124   2.598 110.480  1.00  0.00    -0.361 OA
HETATM   21  H9  UNL     1      52.987   3.558 110.545  1.00  0.00     0.217 HD
ENDBRANCH   1  20
TORSDOF 3
ENDMDL
