MODEL 1
REMARK VINA RESULT:      -8.6      0.000      0.000
REMARK  7 active torsions:
REMARK  status: ('A' for Active; 'I' for Inactive)
REMARK    1  A    between atoms: C6_6  and  N2_11 
REMARK    2  A    between atoms: C7_8  and  N4_18 
REMARK    3  A    between atoms: C12_14  and  N3_17 
REMARK    4  A    between atoms: C19_24  and  O1_27 
REMARK    5  A    between atoms: O1_27  and  C22_28 
REMARK    6  A    between atoms: C22_28  and  C23_29 
REMARK    7  A    between atoms: C23_29  and  O2_30 
ROOT
HETATM    1  C1  UNL     1      51.060   2.563 106.559  1.00  0.00     0.096 A 
HETATM    2  C2  UNL     1      50.649   1.246 106.856  1.00  0.00    -0.005 A 
HETATM    3  C3  UNL     1      51.083   0.596 108.020  1.00  0.00     0.014 A 
HETATM    4  C4  UNL     1      51.925   1.247 108.909  1.00  0.00     0.003 A 
HETATM    5  C5  UNL     1      52.339   2.546 108.634  1.00  0.00     0.032 A 
HETATM    6  C6  UNL     1      51.935   3.226 107.467  1.00  0.00     0.060 A 
HETATM    7  N1  UNL     1      50.594   3.174 105.440  1.00  0.00    -0.228 NA
HETATM    8  C7  UNL     1      49.765   2.525 104.582  1.00  0.00     0.136 A 
HETATM    9  C8  UNL     1      49.325   1.238 104.827  1.00  0.00     0.052 A 
HETATM   10  C9  UNL     1      49.778   0.596 105.974  1.00  0.00     0.017 A 
ENDROOT
BRANCH   8  11
HETATM   11  N4  UNL     1      49.341   3.258 103.436  1.00  0.00    -0.288 N 
HETATM   12  C15 UNL     1      49.416   4.635 103.360  1.00  0.00     0.217 A 
HETATM   13  N5  UNL     1      48.879   5.119 102.264  1.00  0.00    -0.241 NA
HETATM   14  C16 UNL     1      48.495   4.019 101.550  1.00  0.00     0.088 A 
HETATM   15  C17 UNL     1      48.801   2.833 102.225  1.00  0.00     0.071 A 
HETATM   16  C18 UNL     1      47.894   3.971 100.283  1.00  0.00     0.070 A 
HETATM   17  C21 UNL     1      48.585   1.586 101.615  1.00  0.00     0.035 A 
HETATM   18  C20 UNL     1      47.991   1.560 100.342  1.00  0.00     0.039 A 
HETATM   19  C19 UNL     1      47.633   2.735  99.682  1.00  0.00     0.071 A 
BRANCH  19  20
HETATM   20  O1  UNL     1      47.054   2.825  98.446  1.00  0.00    -0.349 OA
BRANCH  20  21
HETATM   21  C22 UNL     1      47.198   1.733  97.537  1.00  0.00     0.201 C 
BRANCH  21  22
HETATM   22  C23 UNL     1      48.050   2.124  96.329  1.00  0.00     0.193 C 
BRANCH  22  23
HETATM   23  O2  UNL     1      49.440   2.206  96.649  1.00  0.00    -0.394 OA
HETATM   24  C24 UNL     1      49.929   3.541  96.684  1.00  0.00     0.201 C 
ENDBRANCH  22  23
ENDBRANCH  21  22
ENDBRANCH  20  21
ENDBRANCH  19  20
ENDBRANCH   8  11
BRANCH   6  25
HETATM   25  N2  UNL     1      52.394   4.528 107.234  1.00  0.00    -0.379 N 
HETATM   26  C10 UNL     1      53.719   4.803 106.687  1.00  0.00     0.125 C 
HETATM   27  C11 UNL     1      53.600   5.351 105.266  1.00  0.00     0.055 C 
HETATM   28  C12 UNL     1      52.674   6.571 105.247  1.00  0.00     0.221 C 
HETATM   29  C13 UNL     1      51.304   6.219 105.837  1.00  0.00     0.055 C 
HETATM   30  C14 UNL     1      51.443   5.643 107.248  1.00  0.00     0.125 C 
BRANCH  28  31
HETATM   31  N3  UNL     1      52.515   7.082 103.883  1.00  0.00     0.083 N 
HETATM   32  H15 UNL     1      51.710   6.636 103.441  1.00  0.00     0.313 HD
HETATM   33  H16 UNL     1      53.326   6.825 103.321  1.00  0.00     0.313 HD
ENDBRANCH  28  31
ENDBRANCH   6  25
TORSDOF 7
ENDMDL
