MODEL 1
REMARK VINA RESULT:      -9.1      0.000      0.000
REMARK  2 active torsions:
REMARK  status: ('A' for Active; 'I' for Inactive)
REMARK    1  A    between atoms: N2_4  and  C5_7 
REMARK    2  A    between atoms: C15_19  and  C17_22 
ROOT
HETATM    1  C5  UNL     1      50.932   6.972  99.643  1.00  0.00     0.030 A 
HETATM    2  C6  UNL     1      49.985   6.511  98.724  1.00  0.00     0.030 A 
HETATM    3  C7  UNL     1      49.287   5.363  98.903  1.00  0.00     0.014 A 
HETATM    4  C8  UNL     1      49.491   4.581 100.033  1.00  0.00    -0.023 A 
HETATM    5  C9  UNL     1      50.418   5.013 100.962  1.00  0.00     0.014 A 
HETATM    6  C10 UNL     1      51.124   6.192 100.763  1.00  0.00     0.030 A 
HETATM    7  C11 UNL     1      48.756   3.325 100.157  1.00  0.00     0.009 A 
HETATM    8  C12 UNL     1      48.369   2.771 101.354  1.00  0.00     0.132 A 
HETATM    9  N3  UNL     1      47.690   1.595 101.347  1.00  0.00    -0.240 NA
HETATM   10  C13 UNL     1      47.378   0.947 100.210  1.00  0.00     0.162 A 
HETATM   11  N4  UNL     1      47.739   1.461  99.029  1.00  0.00    -0.225 N 
HETATM   12  C14 UNL     1      48.412   2.620  98.993  1.00  0.00     0.134 A 
HETATM   13  C15 UNL     1      46.689  -0.214  99.968  1.00  0.00     0.042 A 
HETATM   14  C16 UNL     1      46.647  -0.379  98.591  1.00  0.00     0.155 A 
HETATM   15  N5  UNL     1      47.297   0.657  98.045  1.00  0.00    -0.178 NA
HETATM   16 CL1  UNL     1      49.040   4.169 100.004  1.00  0.00    -0.145 Cl
HETATM   17 CL2  UNL     1      49.038   4.166 100.005  1.00  0.00    -0.145 Cl
HETATM   18  H23 UNL     1      48.147   3.156 100.302  1.00  0.00     0.145 HD
HETATM   19  H24 UNL     1      48.149   3.160 100.301  1.00  0.00     0.145 HD
ENDROOT
BRANCH  13  20
HETATM   20  C17 UNL     1      46.149  -1.088 100.999  1.00  0.00    -0.007 A 
HETATM   21  C18 UNL     1      45.270  -0.709 101.989  1.00  0.00     0.032 A 
HETATM   22  C19 UNL     1      44.849  -1.633 102.922  1.00  0.00     0.118 A 
HETATM   23  N6  UNL     1      45.254  -2.916 102.919  1.00  0.00    -0.260 NA
HETATM   24  C20 UNL     1      46.114  -3.296 101.950  1.00  0.00     0.067 A 
HETATM   25  C21 UNL     1      46.567  -2.399 100.991  1.00  0.00     0.004 A 
HETATM   26  C22 UNL     1      46.540  -4.616 101.895  1.00  0.00     0.032 A 
HETATM   27  C25 UNL     1      47.438  -2.811  99.988  1.00  0.00     0.014 A 
HETATM   28  C24 UNL     1      47.864  -4.121  99.929  1.00  0.00     0.001 A 
HETATM   29  C23 UNL     1      47.404  -4.988 100.884  1.00  0.00     0.002 A 
ENDBRANCH  13  20
BRANCH   1  30
HETATM   30  N2  UNL     1      51.681   8.160  99.365  1.00  0.00    -0.378 N 
HETATM   31  C2  UNL     1      52.798   8.454 100.241  1.00  0.00     0.153 C 
HETATM   32  C1  UNL     1      53.011   9.950 100.347  1.00  0.00     0.289 C 
HETATM   33  N1  UNL     1      53.292  10.439  99.043  1.00  0.00     0.086 N 
HETATM   34  C4  UNL     1      52.385  10.094  98.009  1.00  0.00     0.289 C 
HETATM   35  H1  UNL     1      54.308  10.315  98.812  1.00  0.00     0.316 HD
HETATM   36  C3  UNL     1      51.380   9.040  98.293  1.00  0.00     0.153 C 
ENDBRANCH   1  30
TORSDOF 2
ENDMDL
