MODEL 1
REMARK VINA RESULT:      -9.4      0.000      0.000
REMARK  7 active torsions:
REMARK  status: ('A' for Active; 'I' for Inactive)
REMARK    1  A    between atoms: C3_3  and  N3_21 
REMARK    2  A    between atoms: C6_6  and  O1_10 
REMARK    3  A    between atoms: C11_13  and  C12_14 
REMARK    4  A    between atoms: C12_14  and  C13_16 
REMARK    5  A    between atoms: C13_16  and  C14_17 
REMARK    6  A    between atoms: C13_16  and  N2_19 
REMARK    7  A    between atoms: C14_17  and  O3_18 
ROOT
HETATM    1  C1  UNL     1      51.882   0.927 109.320  1.00  0.00     0.040 A 
HETATM    2  C2  UNL     1      51.239   0.025 108.458  1.00  0.00     0.041 A 
HETATM    3  C3  UNL     1      50.777   0.451 107.199  1.00  0.00     0.130 A 
HETATM    4  C4  UNL     1      50.937   1.778 106.819  1.00  0.00     0.079 A 
HETATM    5  C5  UNL     1      51.628   2.648 107.674  1.00  0.00     0.006 A 
HETATM    6  C6  UNL     1      52.095   2.249 108.926  1.00  0.00     0.076 A 
HETATM    7  N1  UNL     1      50.527   2.494 105.670  1.00  0.00    -0.315 N 
HETATM    8  C7  UNL     1      51.183   3.810 105.678  1.00  0.00     0.137 A 
HETATM    9  C8  UNL     1      51.728   4.026 107.090  1.00  0.00     0.064 C 
HETATM   10  C10 UNL     1      49.513   2.123 104.804  1.00  0.00     0.224 A 
HETATM   11  C11 UNL     1      49.422   2.935 103.521  1.00  0.00     0.106 A 
HETATM   12  O2  UNL     1      48.707   1.228 105.056  1.00  0.00    -0.273 OA
HETATM   13  C15 UNL     1      50.561   2.501 106.279  1.00  0.00     0.477 A 
HETATM   14  F1  UNL     1      51.884   2.750 106.067  1.00  0.00    -0.161 F 
HETATM   15  F2  UNL     1      50.040   3.639 106.822  1.00  0.00    -0.161 F 
HETATM   16  F3  UNL     1      50.505   1.553 107.256  1.00  0.00    -0.161 F 
HETATM   17  C16 UNL     1      49.824   2.083 105.002  1.00  0.00     0.252 A 
HETATM   18  O7  UNL     1      48.957   1.223 104.895  1.00  0.00    -0.643 OA
HETATM   19  O8  UNL     1      50.173   2.796 103.899  1.00  0.00    -0.770 OA
HETATM   20  H18 UNL     1      49.611   2.430 103.183  1.00  0.00     0.167 HD
ENDROOT
BRANCH  11  21
HETATM   21  C12 UNL     1      48.477   2.291 102.505  1.00  0.00     0.056 C 
BRANCH  21  22
HETATM   22  C13 UNL     1      47.461   3.282 101.928  1.00  0.00     0.315 C 
BRANCH  22  23
HETATM   23  C14 UNL     1      47.951   3.827 100.582  1.00  0.00     0.173 C 
HETATM   24  O4  UNL     1      49.029   3.589 100.055  1.00  0.00    -0.648 OA
BRANCH  23  25
HETATM   25  O3  UNL     1      47.047   4.611  99.964  1.00  0.00    -0.775 OA
HETATM   26  H15 UNL     1      46.256   4.573 100.540  1.00  0.00     0.167 HD
ENDBRANCH  23  25
ENDBRANCH  22  23
BRANCH  22  27
HETATM   27  N2  UNL     1      46.140   2.629 101.756  1.00  0.00     0.093 N 
HETATM   28  H16 UNL     1      46.139   2.163 100.845  1.00  0.00     0.314 HD
HETATM   29  H17 UNL     1      45.439   3.367 101.647  1.00  0.00     0.314 HD
ENDBRANCH  22  27
ENDBRANCH  21  22
ENDBRANCH  11  21
BRANCH   3  30
HETATM   30  N3  UNL     1      50.340  -0.585 106.281  1.00  0.00    -0.113 N 
HETATM   31  O5  UNL     1      51.123  -0.901 105.372  1.00  0.00    -0.532 OA
HETATM   32  O6  UNL     1      49.273  -1.161 106.546  1.00  0.00    -0.532 OA
ENDBRANCH   3  30
BRANCH   6  33
HETATM   33  O1  UNL     1      52.724   3.214 109.661  1.00  0.00    -0.355 OA
HETATM   34  C9  UNL     1      52.276   3.404 110.998  1.00  0.00     0.210 C 
ENDBRANCH   6  33
TORSDOF 7
ENDMDL
