MODEL 1
REMARK VINA RESULT:      -6.1      0.000      0.000
REMARK  8 active torsions:
REMARK  status: ('A' for Active; 'I' for Inactive)
REMARK    1  A    between atoms: C1_1  and  O4_19 
REMARK    2  A    between atoms: C2_2  and  O5_20 
REMARK    3  A    between atoms: C3_3  and  O6_21 
REMARK    4  A    between atoms: C4_4  and  O2_7 
REMARK    5  A    between atoms: C5_6  and  C13_17 
REMARK    6  A    between atoms: O2_7  and  C6_8 
REMARK    7  A    between atoms: C9_11  and  N1_14 
REMARK    8  A    between atoms: C13_17  and  O3_18 
ROOT
HETATM    1  N1  UNL     1      52.316   1.503 108.610  1.00  0.00    -0.198 NA
HETATM    2  C12 UNL     1      52.312   2.276 109.495  1.00  0.00     0.042 C 
HETATM    3  S1  UNL     1      52.321   3.447 110.864  1.00  0.00     0.021 SA
ENDROOT
BRANCH   1   4
HETATM    4  C9  UNL     1      51.410   1.859 107.598  1.00  0.00     0.067 A 
HETATM    5  C8  UNL     1      50.554   0.897 107.040  1.00  0.00     0.035 A 
HETATM    6  C7  UNL     1      49.669   1.242 106.016  1.00  0.00     0.039 A 
HETATM    7  C6  UNL     1      49.637   2.553 105.546  1.00  0.00     0.072 A 
HETATM    8  C11 UNL     1      50.514   3.509 106.055  1.00  0.00     0.039 A 
HETATM    9  C10 UNL     1      51.397   3.161 107.080  1.00  0.00     0.035 A 
BRANCH   7  10
HETATM   10  O2  UNL     1      48.815   2.914 104.516  1.00  0.00    -0.318 OA
BRANCH  10  11
HETATM   11  C4  UNL     1      49.533   3.037 103.271  1.00  0.00     0.298 C 
HETATM   12  C3  UNL     1      48.983   4.272 102.535  1.00  0.00     0.205 C 
HETATM   13  C2  UNL     1      47.510   4.087 102.131  1.00  0.00     0.183 C 
HETATM   14  C1  UNL     1      47.102   2.605 102.113  1.00  0.00     0.180 C 
HETATM   15  C5  UNL     1      48.269   1.707 101.662  1.00  0.00     0.179 C 
HETATM   16  O1  UNL     1      49.452   1.853 102.467  1.00  0.00    -0.348 OA
BRANCH  12  17
HETATM   17  O6  UNL     1      49.116   5.471 103.317  1.00  0.00    -0.388 OA
HETATM   18  H15 UNL     1      49.067   5.205 104.255  1.00  0.00     0.210 HD
ENDBRANCH  12  17
BRANCH  13  19
HETATM   19  O5  UNL     1      47.320   4.681 100.834  1.00  0.00    -0.390 OA
HETATM   20  H14 UNL     1      47.597   4.009 100.183  1.00  0.00     0.210 HD
ENDBRANCH  13  19
BRANCH  14  21
HETATM   21  O4  UNL     1      45.905   2.401 101.366  1.00  0.00    -0.390 OA
HETATM   22  H13 UNL     1      46.185   1.959 100.534  1.00  0.00     0.210 HD
ENDBRANCH  14  21
BRANCH  15  23
HETATM   23  C13 UNL     1      48.661   1.866 100.181  1.00  0.00     0.198 C 
BRANCH  23  24
HETATM   24  O3  UNL     1      47.796   1.137  99.319  1.00  0.00    -0.398 OA
HETATM   25  H12 UNL     1      46.930   1.580  99.347  1.00  0.00     0.209 HD
ENDBRANCH  23  24
ENDBRANCH  15  23
ENDBRANCH  10  11
ENDBRANCH   7  10
ENDBRANCH   1   4
TORSDOF 8
ENDMDL
