MODEL 1
REMARK VINA RESULT:      -6.6      0.000      0.000
REMARK  8 active torsions:
REMARK  status: ('A' for Active; 'I' for Inactive)
REMARK    1  A    between atoms: C1_1  and  O5_20 
REMARK    2  A    between atoms: C2_2  and  O4_19 
REMARK    3  A    between atoms: C3_3  and  O3_18 
REMARK    4  A    between atoms: C5_5  and  C7_7 
REMARK    5  A    between atoms: C8_8  and  C9_9 
REMARK    6  A    between atoms: C12_12  and  O1_15 
REMARK    7  A    between atoms: C13_13  and  O2_17 
REMARK    8  A    between atoms: C14_14  and  O6_22 
ROOT
HETATM    1  C7  UNL     1      48.472   1.146 104.847  1.00  0.00     0.012 C 
HETATM    2  C8  UNL     1      48.016   1.147 103.583  1.00  0.00     0.015 C 
ENDROOT
BRANCH   1   3
HETATM    3  C5  UNL     1      49.532   1.991 105.414  1.00  0.00    -0.031 A 
HETATM    4  C4  UNL     1      50.315   1.556 106.497  1.00  0.00     0.051 A 
HETATM    5  C3  UNL     1      51.292   2.384 107.058  1.00  0.00     0.105 A 
HETATM    6  C2  UNL     1      51.468   3.676 106.536  1.00  0.00     0.135 A 
HETATM    7  C1  UNL     1      50.713   4.107 105.437  1.00  0.00     0.105 A 
HETATM    8  C6  UNL     1      49.725   3.277 104.906  1.00  0.00     0.051 A 
BRANCH   5   9
HETATM    9  O3  UNL     1      52.083   2.047 108.128  1.00  0.00    -0.353 OA
HETATM   10  C18 UNL     1      51.697   0.902 108.877  1.00  0.00     0.210 C 
ENDBRANCH   5   9
BRANCH   6  11
HETATM   11  O4  UNL     1      52.412   4.502 107.101  1.00  0.00    -0.351 OA
HETATM   12  C17 UNL     1      53.639   4.387 106.383  1.00  0.00     0.210 C 
ENDBRANCH   6  11
BRANCH   7  13
HETATM   13  O5  UNL     1      50.824   5.346 104.863  1.00  0.00    -0.353 OA
HETATM   14  C16 UNL     1      50.073   5.460 103.654  1.00  0.00     0.210 C 
ENDBRANCH   7  13
ENDBRANCH   1   3
BRANCH   2  15
HETATM   15  C9  UNL     1      48.434   2.036 102.490  1.00  0.00    -0.000 A 
HETATM   16  C10 UNL     1      49.715   1.925 101.926  1.00  0.00     0.017 A 
HETATM   17  C11 UNL     1      50.125   2.777 100.886  1.00  0.00     0.040 A 
HETATM   18  C12 UNL     1      49.262   3.758 100.399  1.00  0.00     0.104 A 
HETATM   19  C13 UNL     1      47.993   3.873 100.973  1.00  0.00     0.133 A 
HETATM   20  C14 UNL     1      47.583   3.031 102.007  1.00  0.00     0.112 A 
BRANCH  18  21
HETATM   21  O1  UNL     1      49.529   4.652  99.395  1.00  0.00    -0.353 OA
HETATM   22  C15 UNL     1      50.340   5.772  99.744  1.00  0.00     0.210 C 
ENDBRANCH  18  21
BRANCH  19  23
HETATM   23  O2  UNL     1      47.109   4.825 100.522  1.00  0.00    -0.356 OA
HETATM   24  H10 UNL     1      46.648   4.394  99.775  1.00  0.00     0.218 HD
ENDBRANCH  19  23
BRANCH  20  25
HETATM   25  O6  UNL     1      46.328   3.199 102.527  1.00  0.00    -0.357 OA
HETATM   26  H14 UNL     1      45.727   2.888 101.823  1.00  0.00     0.217 HD
ENDBRANCH  20  25
ENDBRANCH   2  15
TORSDOF 8
ENDMDL
