MODEL 1
REMARK VINA RESULT:      -8.2      0.000      0.000
REMARK  4 active torsions:
REMARK  status: ('A' for Active; 'I' for Inactive)
REMARK    1  A    between atoms: C4_4  and  C7_8 
REMARK    2  A    between atoms: C10_11  and  N1_14 
REMARK    3  A    between atoms: C11_12  and  N2_15 
REMARK       I    between atoms: N2_15  and  C13_16 
REMARK    4  A    between atoms: C13_16  and  C14_17 
ROOT
HETATM    1  C7  UNL     1      49.700   2.107 105.627  1.00  0.00    -0.024 A 
HETATM    2  C8  UNL     1      48.564   1.381 105.236  1.00  0.00     0.014 A 
HETATM    3  C9  UNL     1      47.837   1.732 104.095  1.00  0.00     0.026 A 
HETATM    4  C10 UNL     1      48.253   2.800 103.300  1.00  0.00     0.033 A 
HETATM    5  C11 UNL     1      49.362   3.572 103.703  1.00  0.00     0.056 A 
HETATM    6  C12 UNL     1      50.083   3.211 104.845  1.00  0.00     0.043 A 
ENDROOT
BRANCH   5   7
HETATM    7  N2  UNL     1      49.680   4.665 102.872  1.00  0.00    -0.325 N 
HETATM    8  C13 UNL     1      50.238   5.878 103.226  1.00  0.00     0.226 C 
HETATM    9  O1  UNL     1      50.488   6.244 104.369  1.00  0.00    -0.273 OA
HETATM   10  H10 UNL     1      49.433   4.499 101.900  1.00  0.00     0.169 HD
BRANCH   8  11
HETATM   11  C14 UNL     1      50.496   6.776 102.013  1.00  0.00     0.082 C 
HETATM   12  C15 UNL     1      50.423   5.978 100.707  1.00  0.00     0.040 C 
HETATM   13  C16 UNL     1      50.806   6.850  99.520  1.00  0.00     0.168 C 
HETATM   14  O2  UNL     1      52.095   7.428  99.706  1.00  0.00    -0.391 OA
HETATM   15  C17 UNL     1      52.152   8.269 100.855  1.00  0.00     0.168 C 
HETATM   16  C18 UNL     1      51.858   7.474 102.117  1.00  0.00     0.040 C 
ENDBRANCH   8  11
ENDBRANCH   5   7
BRANCH   4  17
HETATM   17  N1  UNL     1      47.430   3.259 102.234  1.00  0.00    -0.301 NA
HETATM   18  H8  UNL     1      46.474   3.355 102.581  1.00  0.00     0.124 HD
HETATM   19  H9  UNL     1      47.424   2.585 101.470  1.00  0.00     0.124 HD
ENDBRANCH   4  17
BRANCH   1  20
HETATM   20  C4  UNL     1      50.462   1.731 106.833  1.00  0.00    -0.026 A 
HETATM   21  C3  UNL     1      51.446   2.585 107.365  1.00  0.00     0.015 A 
HETATM   22  C2  UNL     1      52.168   2.232 108.509  1.00  0.00     0.043 A 
HETATM   23  C1  UNL     1      51.910   1.018 109.130  1.00  0.00     0.116 A 
HETATM   24  C6  UNL     1      50.949   0.150 108.629  1.00  0.00     0.043 A 
HETATM   25  F1  UNL     1      52.600   0.678 110.227  1.00  0.00    -0.206 F 
HETATM   26  C5  UNL     1      50.229   0.506 107.486  1.00  0.00     0.015 A 
ENDBRANCH   1  20
TORSDOF 4
ENDMDL
