MODEL 1
REMARK VINA RESULT:      -8.2      0.000      0.000
REMARK  10 active torsions:
REMARK  status: ('A' for Active; 'I' for Inactive)
REMARK    1  A    between atoms: C1_1  and  O3_12 
REMARK    2  A    between atoms: C2_2  and  O4_13 
REMARK    3  A    between atoms: C6_6  and  O2_11 
REMARK    4  A    between atoms: C9_9  and  C10_15 
REMARK    5  A    between atoms: O2_11  and  C16_21 
REMARK    6  A    between atoms: C17_22  and  O11_32 
REMARK    7  A    between atoms: C18_23  and  O9_30 
REMARK    8  A    between atoms: C19_24  and  O10_31 
REMARK    9  A    between atoms: C20_25  and  C21_27 
REMARK   10  A    between atoms: C21_27  and  O8_29 
ROOT
HETATM    1  C1  UNL     1      47.799   3.989 101.821  1.00  0.00     0.134 A 
HETATM    2  C2  UNL     1      47.567   2.747 102.422  1.00  0.00     0.118 A 
HETATM    3  C3  UNL     1      48.261   2.391 103.577  1.00  0.00     0.084 A 
HETATM    4  C4  UNL     1      49.166   3.280 104.145  1.00  0.00     0.096 A 
HETATM    5  C5  UNL     1      49.396   4.520 103.547  1.00  0.00     0.078 A 
HETATM    6  C6  UNL     1      48.735   4.870 102.364  1.00  0.00     0.110 A 
HETATM    7  C7  UNL     1      48.067   1.089 104.221  1.00  0.00     0.190 A 
HETATM    8  C8  UNL     1      48.868   0.808 105.419  1.00  0.00     0.094 A 
HETATM    9  C9  UNL     1      49.698   1.752 105.882  1.00  0.00     0.090 A 
HETATM   10  O1  UNL     1      49.873   2.993 105.285  1.00  0.00    -0.309 OA
HETATM   11  O5  UNL     1      47.271   0.274 103.768  1.00  0.00    -0.287 OA
ENDROOT
BRANCH   6  12
HETATM   12  O2  UNL     1      49.066   6.100 101.864  1.00  0.00    -0.315 OA
BRANCH  12  13
HETATM   13  C16 UNL     1      50.440   6.251 101.447  1.00  0.00     0.299 C 
HETATM   14  C17 UNL     1      50.439   6.266  99.904  1.00  0.00     0.205 C 
HETATM   15  C18 UNL     1      51.865   6.436  99.354  1.00  0.00     0.183 C 
HETATM   16  C19 UNL     1      52.893   6.895 100.400  1.00  0.00     0.189 C 
HETATM   17  C20 UNL     1      52.285   7.822 101.459  1.00  0.00     0.253 C 
HETATM   18  O6  UNL     1      50.966   7.503 101.902  1.00  0.00    -0.340 OA
BRANCH  14  19
HETATM   19  O11 UNL     1      49.866   5.075  99.337  1.00  0.00    -0.388 OA
HETATM   20  H18 UNL     1      49.042   4.912  99.827  1.00  0.00     0.210 HD
ENDBRANCH  14  19
BRANCH  15  21
HETATM   21  O9  UNL     1      51.846   7.328  98.229  1.00  0.00    -0.390 OA
HETATM   22  H16 UNL     1      51.750   6.794  97.410  1.00  0.00     0.210 HD
ENDBRANCH  15  21
BRANCH  16  23
HETATM   23  O10 UNL     1      53.438   5.744 101.065  1.00  0.00    -0.390 OA
HETATM   24  H17 UNL     1      53.632   5.073 100.387  1.00  0.00     0.210 HD
ENDBRANCH  16  23
BRANCH  17  25
HETATM   25  C21 UNL     1      52.229   9.217 100.861  1.00  0.00     0.172 C 
HETATM   26  O7  UNL     1      53.174   9.811 100.354  1.00  0.00    -0.648 OA
BRANCH  25  27
HETATM   27  O8  UNL     1      51.019   9.801 100.948  1.00  0.00    -0.774 OA
HETATM   28  H15 UNL     1      50.526   9.266 101.604  1.00  0.00     0.167 HD
ENDBRANCH  25  27
ENDBRANCH  17  25
ENDBRANCH  12  13
ENDBRANCH   6  12
BRANCH   1  29
HETATM   29  O3  UNL     1      47.067   4.308 100.710  1.00  0.00    -0.356 OA
HETATM   30  H3  UNL     1      46.930   5.275 100.769  1.00  0.00     0.218 HD
ENDBRANCH   1  29
BRANCH   2  31
HETATM   31  O4  UNL     1      46.642   1.930 101.816  1.00  0.00    -0.357 OA
HETATM   32  H4  UNL     1      47.110   1.423 101.111  1.00  0.00     0.217 HD
ENDBRANCH   2  31
BRANCH   9  33
HETATM   33  C10 UNL     1      50.539   1.538 107.080  1.00  0.00    -0.002 A 
HETATM   34  C11 UNL     1      51.528   2.476 107.417  1.00  0.00     0.014 A 
HETATM   35  C12 UNL     1      52.333   2.301 108.546  1.00  0.00     0.001 A 
HETATM   36  C13 UNL     1      52.158   1.187 109.361  1.00  0.00     0.000 A 
HETATM   37  C14 UNL     1      51.172   0.251 109.050  1.00  0.00     0.001 A 
HETATM   38  C15 UNL     1      50.367   0.428 107.922  1.00  0.00     0.014 A 
ENDBRANCH   9  33
TORSDOF 10
ENDMDL
