MODEL 1
REMARK VINA RESULT:      -8.0      0.000      0.000
REMARK  5 active torsions:
REMARK  status: ('A' for Active; 'I' for Inactive)
REMARK    1  A    between atoms: C3_3  and  N1_9 
REMARK    2  A    between atoms: C6_6  and  O1_7 
REMARK    3  A    between atoms: C13_17  and  C14_20 
REMARK    4  A    between atoms: C16_23  and  C19_26 
REMARK    5  A    between atoms: C19_26  and  O3_28 
ROOT
HETATM    1  N1  UNL     1      51.940   2.971 106.833  1.00  0.00    -0.293 N 
HETATM    2  C8  UNL     1      52.300   2.833 108.166  1.00  0.00     0.245 C 
HETATM    3  C9  UNL     1      52.187   1.444 108.762  1.00  0.00     0.254 C 
HETATM    4  N2  UNL     1      51.076   0.630 108.275  1.00  0.00    -0.260 NA
HETATM    5  C10 UNL     1      50.571   0.910 107.126  1.00  0.00     0.170 A 
HETATM    6  C11 UNL     1      51.045   2.084 106.255  1.00  0.00     0.179 A 
HETATM    7  N3  UNL     1      49.565   0.154 106.588  1.00  0.00    -0.346 N 
HETATM    8  C12 UNL     1      49.143   0.362 105.303  1.00  0.00     0.122 A 
HETATM    9  C13 UNL     1      49.650   1.359 104.551  1.00  0.00     0.086 A 
HETATM   10  N4  UNL     1      50.587   2.253 105.047  1.00  0.00    -0.225 NA
HETATM   11  O2  UNL     1      52.748   3.757 108.847  1.00  0.00    -0.271 OA
HETATM   12  H16 UNL     1      49.248  -0.660 107.100  1.00  0.00     0.167 HD
ENDROOT
BRANCH   9  13
HETATM   13  C14 UNL     1      49.174   1.574 103.170  1.00  0.00     0.012 A 
HETATM   14  C15 UNL     1      49.999   2.029 102.147  1.00  0.00     0.130 A 
HETATM   15  N5  UNL     1      49.601   2.243 100.867  1.00  0.00    -0.261 NA
HETATM   16  C16 UNL     1      48.291   2.011 100.570  1.00  0.00     0.067 A 
HETATM   17  C17 UNL     1      47.385   1.574 101.532  1.00  0.00     0.031 A 
HETATM   18  C18 UNL     1      47.833   1.359 102.837  1.00  0.00     0.017 A 
BRANCH  16  19
HETATM   19  C19 UNL     1      47.874   2.264  99.122  1.00  0.00     0.095 C 
HETATM   20  C20 UNL     1      46.590   3.091  99.045  1.00  0.00     0.052 C 
HETATM   21  C21 UNL     1      49.001   2.922  98.323  1.00  0.00     0.052 C 
BRANCH  19  22
HETATM   22  O3  UNL     1      47.595   1.006  98.482  1.00  0.00    -0.384 OA
HETATM   23  H24 UNL     1      46.663   0.810  98.715  1.00  0.00     0.211 HD
ENDBRANCH  19  22
ENDBRANCH  16  19
ENDBRANCH   9  13
BRANCH   1  24
HETATM   24  C3  UNL     1      52.314   4.230 106.153  1.00  0.00     0.095 C 
HETATM   25  C2  UNL     1      51.559   5.464 106.677  1.00  0.00     0.028 C 
HETATM   26  C1  UNL     1      51.836   6.718 105.835  1.00  0.00     0.034 C 
HETATM   27  C6  UNL     1      53.240   6.750 105.210  1.00  0.00     0.120 C 
HETATM   28  C5  UNL     1      54.226   5.936 106.052  1.00  0.00     0.034 C 
HETATM   29  C4  UNL     1      53.840   4.454 106.124  1.00  0.00     0.028 C 
BRANCH  27  30
HETATM   30  O1  UNL     1      53.124   6.209 103.890  1.00  0.00    -0.391 OA
HETATM   31  C7  UNL     1      52.038   6.744 103.144  1.00  0.00     0.202 C 
ENDBRANCH  27  30
ENDBRANCH   1  24
TORSDOF 5
ENDMDL
