MODEL 1
REMARK VINA RESULT:      -8.1      0.000      0.000
REMARK  6 active torsions:
REMARK  status: ('A' for Active; 'I' for Inactive)
REMARK    1  A    between atoms: C3_3  and  O6_30 
REMARK    2  A    between atoms: C7_7  and  O1_19 
REMARK    3  A    between atoms: C12_12  and  O7_31 
REMARK    4  A    between atoms: C16_16  and  C19_22 
REMARK    5  A    between atoms: C17_17  and  O5_25 
REMARK    6  A    between atoms: C18_18  and  N2_26 
REMARK       I    between atoms: C19_22  and  N1_23 
ROOT
HETATM    1  C1  UNL     1      48.210   1.505 102.014  1.00  0.00     0.027 A 
HETATM    2  C2  UNL     1      48.630   2.005 103.205  1.00  0.00     0.039 A 
HETATM    3  C3  UNL     1      49.290   3.250 103.225  1.00  0.00     0.079 A 
HETATM    4  C4  UNL     1      49.489   3.918 102.027  1.00  0.00     0.044 A 
HETATM    5  C5  UNL     1      49.055   3.399 100.809  1.00  0.00     0.008 A 
HETATM    6  C6  UNL     1      48.415   2.189 100.811  1.00  0.00     0.045 A 
HETATM    7  C7  UNL     1      50.145   5.145 102.056  1.00  0.00     0.094 A 
HETATM    8  C8  UNL     1      50.342   5.802 100.873  1.00  0.00     0.054 A 
HETATM    9  C9  UNL     1      49.920   5.305  99.659  1.00  0.00    -0.034 A 
HETATM   10  C10 UNL     1      49.254   4.064  99.615  1.00  0.00    -0.042 A 
HETATM   11  C11 UNL     1      50.989   7.094 100.855  1.00  0.00     0.205 A 
HETATM   12  C12 UNL     1      51.756   7.506  99.673  1.00  0.00     0.194 C 
HETATM   13  C13 UNL     1      51.026   7.191  98.393  1.00  0.00     0.080 A 
HETATM   14  C14 UNL     1      50.159   6.001  98.404  1.00  0.00     0.051 A 
HETATM   15  C15 UNL     1      52.101   8.936  99.813  1.00  0.00     0.210 C 
HETATM   16  C16 UNL     1      51.956   9.838  98.690  1.00  0.00     0.112 C 
HETATM   17  C17 UNL     1      51.002   9.596  97.816  1.00  0.00     0.096 C 
HETATM   18  C18 UNL     1      50.145   8.407  98.057  1.00  0.00     0.287 C 
HETATM   19  O2  UNL     1      50.899   7.851 101.832  1.00  0.00    -0.288 OA
HETATM   20  O3  UNL     1      52.524   9.352 100.933  1.00  0.00    -0.288 OA
HETATM   21 CL1  UNL     1      47.826   1.399  99.384  1.00  0.00    -0.083 Cl
HETATM   22  C22 UNL     1      48.760   3.488  98.369  1.00  0.00     0.049 C 
HETATM   23 CL2  UNL     1      50.047   6.131  99.793  1.00  0.00    -0.145 Cl
HETATM   24  H22 UNL     1      50.471   7.204  99.027  1.00  0.00     0.145 HD
ENDROOT
BRANCH  16  25
HETATM   25  C19 UNL     1      52.866  10.980  98.563  1.00  0.00     0.255 C 
HETATM   26  N1  UNL     1      53.134  11.875  99.614  1.00  0.00    -0.366 N 
HETATM   27  H8  UNL     1      52.798  12.869  99.648  1.00  0.00     0.159 HD
HETATM   28  H9  UNL     1      53.712  11.527 100.429  1.00  0.00     0.159 HD
HETATM   29  O4  UNL     1      53.422  11.151  97.452  1.00  0.00    -0.268 OA
ENDBRANCH  16  25
BRANCH  17  30
HETATM   30  O5  UNL     1      50.842  10.444  96.733  1.00  0.00    -0.362 OA
HETATM   31  H10 UNL     1      50.018  11.051  96.712  1.00  0.00     0.217 HD
ENDBRANCH  17  30
BRANCH  12  32
HETATM   32  O7  UNL     1      52.981   6.799  99.718  1.00  0.00    -0.373 OA
HETATM   33  H18 UNL     1      53.311   6.918 100.652  1.00  0.00     0.211 HD
ENDBRANCH  12  32
BRANCH  18  34
HETATM   34  N2  UNL     1      49.229   8.124  97.004  1.00  0.00     0.091 N 
HETATM   35  C20 UNL     1      49.818   8.157  95.686  1.00  0.00     0.310 C 
HETATM   36  C21 UNL     1      48.173   9.108  97.051  1.00  0.00     0.310 C 
ENDBRANCH  18  34
BRANCH   7  37
HETATM   37  O1  UNL     1      50.571   5.655 103.241  1.00  0.00    -0.359 OA
HETATM   38  H7  UNL     1      50.524   6.552 103.605  1.00  0.00     0.217 HD
ENDBRANCH   7  37
BRANCH   3  39
HETATM   39  O6  UNL     1      49.680   3.687 104.450  1.00  0.00    -0.360 OA
HETATM   40  H17 UNL     1      50.457   3.846 104.978  1.00  0.00     0.217 HD
ENDBRANCH   3  39
TORSDOF 6
ENDMDL
