MODEL 1
REMARK VINA RESULT:      -9.9      0.000      0.000
REMARK  6 active torsions:
REMARK  status: ('A' for Active; 'I' for Inactive)
REMARK    1  A    between atoms: C7_8  and  C10_12 
REMARK    2  A    between atoms: C9_10  and  C11_15 
REMARK       I    between atoms: C10_12  and  N2_14 
REMARK       I    between atoms: C11_15  and  N3_16 
REMARK    3  A    between atoms: N3_16  and  C12_18 
REMARK    4  A    between atoms: N4_20  and  C16_24 
REMARK    5  A    between atoms: C14_22  and  C23_31 
REMARK    6  A    between atoms: C16_24  and  C17_25 
ROOT
HETATM    1  C17 UNL     1      46.029  -1.384 101.426  1.00  0.00    -0.038 A 
HETATM    2  C18 UNL     1      45.612  -2.117 102.546  1.00  0.00     0.010 A 
HETATM    3  C19 UNL     1      45.800  -3.502 102.597  1.00  0.00     0.023 A 
HETATM    4  C20 UNL     1      46.414  -4.168 101.532  1.00  0.00     0.044 A 
HETATM    5  C21 UNL     1      46.841  -3.443 100.417  1.00  0.00     0.023 A 
HETATM    6  C22 UNL     1      46.653  -2.060 100.366  1.00  0.00     0.010 A 
HETATM    7  C24 UNL     1      46.605  -5.589 101.586  1.00  0.00     0.099 C 
HETATM    8  N6  UNL     1      46.754  -6.738 101.636  1.00  0.00    -0.191 NA
ENDROOT
BRANCH   1   9
HETATM    9  C16 UNL     1      45.837   0.115 101.374  1.00  0.00     0.189 C 
BRANCH   9  10
HETATM   10  N4  UNL     1      47.066   0.838 101.695  1.00  0.00    -0.267 N 
HETATM   11  C13 UNL     1      47.550   1.185 102.933  1.00  0.00     0.056 A 
HETATM   12  C12 UNL     1      48.707   1.911 102.693  1.00  0.00     0.095 A 
HETATM   13  C15 UNL     1      46.836   0.851 104.195  1.00  0.00     0.072 C 
HETATM   14  C14 UNL     1      48.901   1.859 101.274  1.00  0.00     0.189 A 
HETATM   15  N5  UNL     1      47.873   1.207 100.689  1.00  0.00    -0.165 NA
BRANCH  12  16
HETATM   16  N3  UNL     1      49.433   2.478 103.730  1.00  0.00    -0.319 N 
HETATM   17  C11 UNL     1      50.062   1.781 104.738  1.00  0.00     0.257 C 
HETATM   18  O2  UNL     1      50.183   0.569 104.828  1.00  0.00    -0.267 OA
HETATM   19  H7  UNL     1      49.646   3.464 103.645  1.00  0.00     0.169 HD
BRANCH  17  20
HETATM   20  C9  UNL     1      50.751   2.630 105.735  1.00  0.00     0.047 A 
HETATM   21  C5  UNL     1      51.215   2.128 106.974  1.00  0.00     0.009 A 
HETATM   22  C4  UNL     1      51.791   3.075 107.848  1.00  0.00     0.071 A 
HETATM   23  C6  UNL     1      51.158   0.768 107.375  1.00  0.00     0.018 A 
HETATM   24  C3  UNL     1      52.251   2.658 109.086  1.00  0.00     0.074 A 
HETATM   25  N1  UNL     1      51.922   4.369 107.530  1.00  0.00    -0.243 NA
HETATM   26  C2  UNL     1      52.169   1.325 109.470  1.00  0.00     0.118 A 
HETATM   27  C1  UNL     1      51.632   0.372 108.624  1.00  0.00     0.043 A 
HETATM   28  F1  UNL     1      52.624   0.954 110.674  1.00  0.00    -0.206 F 
HETATM   29  C7  UNL     1      51.512   4.797 106.311  1.00  0.00     0.125 A 
HETATM   30  C8  UNL     1      50.919   3.968 105.383  1.00  0.00     0.055 A 
BRANCH  29  31
HETATM   31  C10 UNL     1      51.708   6.255 106.025  1.00  0.00     0.268 C 
HETATM   32  O1  UNL     1      52.529   6.661 105.213  1.00  0.00    -0.266 OA
HETATM   33  N2  UNL     1      50.911   7.144 106.705  1.00  0.00    -0.365 N 
HETATM   34  H5  UNL     1      50.039   6.861 107.134  1.00  0.00     0.159 HD
HETATM   35  H6  UNL     1      50.971   8.103 106.385  1.00  0.00     0.159 HD
ENDBRANCH  29  31
ENDBRANCH  17  20
ENDBRANCH  12  16
BRANCH  14  36
HETATM   36  C23 UNL     1      50.066   2.333 100.437  1.00  0.00     0.438 C 
HETATM   37  F2  UNL     1      49.820   2.288  99.102  1.00  0.00    -0.164 F 
HETATM   38  F3  UNL     1      50.461   3.597 100.758  1.00  0.00    -0.164 F 
HETATM   39  F4  UNL     1      51.179   1.559 100.631  1.00  0.00    -0.164 F 
ENDBRANCH  14  36
ENDBRANCH   9  10
ENDBRANCH   1   9
TORSDOF 6
ENDMDL
