MODEL 1
REMARK VINA RESULT:      -6.9      0.000      0.000
REMARK  10 active torsions:
REMARK  status: ('A' for Active; 'I' for Inactive)
REMARK    1  A    between atoms: C1_1  and  O9_26 
REMARK    2  A    between atoms: C2_2  and  O8_25 
REMARK    3  A    between atoms: C3_3  and  O10_27 
REMARK    4  A    between atoms: C4_4  and  O3_9 
REMARK    5  A    between atoms: C5_6  and  C6_7 
REMARK    6  A    between atoms: C6_7  and  O2_8 
REMARK    7  A    between atoms: O3_9  and  C7_10 
REMARK    8  A    between atoms: C9_13  and  C15_19 
REMARK    9  A    between atoms: C13_17  and  O7_23 
REMARK   10  A    between atoms: C15_19  and  O6_21 
ROOT
HETATM    1  C7  UNL     1      49.717   2.877 104.708  1.00  0.00     0.273 C 
HETATM    2  O4  UNL     1      50.451   1.865 104.000  1.00  0.00    -0.331 OA
HETATM    3  C8  UNL     1      50.640   0.687 104.678  1.00  0.00     0.151 C 
HETATM    4  C9  UNL     1      50.453   0.509 105.995  1.00  0.00     0.044 C 
HETATM    5  C10 UNL     1      50.062   1.645 106.899  1.00  0.00     0.038 C 
HETATM    6  C11 UNL     1      50.166   3.000 106.168  1.00  0.00     0.056 C 
HETATM    7  C12 UNL     1      50.997   1.875 108.086  1.00  0.00     0.042 C 
HETATM    8  C13 UNL     1      52.191   2.628 107.510  1.00  0.00     0.123 C 
HETATM    9  C14 UNL     1      51.644   3.446 106.324  1.00  0.00     0.020 C 
HETATM   10  C17 UNL     1      51.759   4.961 106.465  1.00  0.00     0.013 C 
ENDROOT
BRANCH   1  11
HETATM   11  O3  UNL     1      48.314   2.600 104.710  1.00  0.00    -0.328 OA
BRANCH  11  12
HETATM   12  C4  UNL     1      47.756   2.648 103.389  1.00  0.00     0.294 C 
HETATM   13  C3  UNL     1      48.160   4.016 102.810  1.00  0.00     0.204 C 
HETATM   14  C2  UNL     1      47.615   4.206 101.387  1.00  0.00     0.183 C 
HETATM   15  C1  UNL     1      47.200   2.875 100.742  1.00  0.00     0.180 C 
HETATM   16  C5  UNL     1      48.105   1.704 101.187  1.00  0.00     0.179 C 
HETATM   17  O1  UNL     1      48.297   1.587 102.607  1.00  0.00    -0.348 OA
BRANCH  13  18
HETATM   18  O10 UNL     1      47.692   5.083 103.652  1.00  0.00    -0.388 OA
HETATM   19  H26 UNL     1      47.502   4.663 104.513  1.00  0.00     0.210 HD
ENDBRANCH  13  18
BRANCH  14  20
HETATM   20  O8  UNL     1      48.616   4.858 100.588  1.00  0.00    -0.390 OA
HETATM   21  H24 UNL     1      49.344   5.116 101.181  1.00  0.00     0.210 HD
ENDBRANCH  14  20
BRANCH  15  22
HETATM   22  O9  UNL     1      45.849   2.571 101.127  1.00  0.00    -0.390 OA
HETATM   23  H25 UNL     1      45.785   1.607 101.258  1.00  0.00     0.210 HD
ENDBRANCH  15  22
BRANCH  16  24
HETATM   24  C6  UNL     1      49.495   1.747 100.529  1.00  0.00     0.198 C 
BRANCH  24  25
HETATM   25  O2  UNL     1      49.421   2.193  99.181  1.00  0.00    -0.398 OA
HETATM   26  H8  UNL     1      50.267   2.637  98.987  1.00  0.00     0.209 HD
ENDBRANCH  24  25
ENDBRANCH  16  24
ENDBRANCH  11  12
ENDBRANCH   1  11
BRANCH   4  27
HETATM   27  C15 UNL     1      50.644  -0.863 106.516  1.00  0.00     0.291 C 
HETATM   28  O5  UNL     1      51.307  -1.724 105.959  1.00  0.00    -0.260 OA
BRANCH  27  29
HETATM   29  O6  UNL     1      49.962  -1.007 107.678  1.00  0.00    -0.323 OA
HETATM   30  C16 UNL     1      49.129  -2.163 107.722  1.00  0.00     0.213 C 
ENDBRANCH  27  29
ENDBRANCH   4  27
BRANCH   8  31
HETATM   31  O7  UNL     1      52.792   3.411 108.524  1.00  0.00    -0.395 OA
HETATM   32  H20 UNL     1      52.151   4.095 108.788  1.00  0.00     0.210 HD
ENDBRANCH   8  31
TORSDOF 10
ENDMDL
