MODEL 1
REMARK VINA RESULT:      -7.5      0.000      0.000
REMARK  5 active torsions:
REMARK  status: ('A' for Active; 'I' for Inactive)
REMARK    1  A    between atoms: C2_2  and  C10_11 
REMARK    2  A    between atoms: C4_4  and  O3_25 
REMARK    3  A    between atoms: C5_5  and  C7_7 
REMARK    4  A    between atoms: C6_6  and  O2_23 
REMARK    5  A    between atoms: C7_7  and  N1_8 
ROOT
HETATM    1  C1  UNL     1      49.035   1.551 103.664  1.00  0.00     0.050 A 
HETATM    2  C2  UNL     1      49.635   2.418 104.581  1.00  0.00    -0.018 A 
HETATM    3  C3  UNL     1      49.709   3.787 104.301  1.00  0.00     0.050 A 
HETATM    4  C4  UNL     1      49.196   4.294 103.104  1.00  0.00     0.079 A 
HETATM    5  C5  UNL     1      48.611   3.419 102.158  1.00  0.00     0.037 A 
HETATM    6  C6  UNL     1      48.517   2.040 102.461  1.00  0.00     0.079 A 
ENDROOT
BRANCH   2   7
HETATM    7  C10 UNL     1      50.186   1.892 105.844  1.00  0.00     0.001 A 
HETATM    8  C11 UNL     1      51.061   2.633 106.778  1.00  0.00    -0.005 A 
HETATM    9  C12 UNL     1      51.510   2.009 107.944  1.00  0.00     0.061 A 
HETATM   10  C16 UNL     1      51.460   3.950 106.536  1.00  0.00     0.032 A 
HETATM   11  C13 UNL     1      51.120   0.620 108.251  1.00  0.00     0.259 A 
HETATM   12  C18 UNL     1      52.329   2.717 108.812  1.00  0.00     0.134 A 
HETATM   13  N2  UNL     1      50.294  -0.007 107.315  1.00  0.00    -0.327 N 
HETATM   14  O1  UNL     1      51.525   0.090 109.282  1.00  0.00    -0.267 OA
HETATM   15  C14 UNL     1      49.857   0.627 106.164  1.00  0.00     0.107 A 
HETATM   16  C15 UNL     1      49.868  -1.380 107.551  1.00  0.00     0.159 C 
HETATM   17  N3  UNL     1      52.727   3.993 108.591  1.00  0.00    -0.272 NA
HETATM   18  C17 UNL     1      52.282   4.580 107.459  1.00  0.00     0.117 A 
ENDBRANCH   2   7
BRANCH   6  19
HETATM   19  O2  UNL     1      47.892   1.254 101.526  1.00  0.00    -0.355 OA
HETATM   20  C19 UNL     1      46.718   0.554 101.915  1.00  0.00     0.210 C 
ENDBRANCH   6  19
BRANCH   4  21
HETATM   21  O3  UNL     1      49.209   5.625 102.773  1.00  0.00    -0.355 OA
HETATM   22  C20 UNL     1      50.468   6.271 102.642  1.00  0.00     0.210 C 
ENDBRANCH   4  21
BRANCH   5  23
HETATM   23  C7  UNL     1      48.064   3.960 100.839  1.00  0.00     0.315 C 
BRANCH  23  24
HETATM   24  N1  UNL     1      48.898   3.809  99.631  1.00  0.00     0.084 N 
HETATM   25  C8  UNL     1      49.621   5.022  99.271  1.00  0.00     0.309 C 
HETATM   26  C9  UNL     1      48.174   3.264  98.491  1.00  0.00     0.309 C 
ENDBRANCH  23  24
ENDBRANCH   5  23
TORSDOF 5
ENDMDL
