MODEL 1
REMARK VINA RESULT:      -7.2      0.000      0.000
REMARK  5 active torsions:
REMARK  status: ('A' for Active; 'I' for Inactive)
REMARK    1  A    between atoms: C1_1  and  O4_22 
REMARK    2  A    between atoms: C7_8  and  O2_20 
REMARK    3  A    between atoms: C13_14  and  O3_21 
REMARK    4  A    between atoms: N1_17  and  C17_19 
REMARK    5  A    between atoms: C17_19  and  C18_23 
ROOT
HETATM    1  C1  UNL     1      48.104   3.952 100.620  1.00  0.00     0.148 C 
HETATM    2  C2  UNL     1      49.151   2.846 100.914  1.00  0.00     0.174 C 
HETATM    3  C3  UNL     1      47.853   4.884 101.801  1.00  0.00     0.037 C 
HETATM    4  C4  UNL     1      49.064   2.232 102.322  1.00  0.00     0.054 C 
HETATM    5  O1  UNL     1      48.898   1.750  99.957  1.00  0.00    -0.339 OA
HETATM    6  C5  UNL     1      47.470   4.094 103.055  1.00  0.00     0.044 C 
HETATM    7  C6  UNL     1      48.000   1.237 101.996  1.00  0.00    -0.001 A 
HETATM    8  C7  UNL     1      48.609   3.145 103.466  1.00  0.00     0.103 C 
HETATM    9  C8  UNL     1      50.325   1.433 102.722  1.00  0.00     0.050 C 
HETATM   10  C9  UNL     1      48.013   0.948 100.643  1.00  0.00     0.110 A 
HETATM   11  C10 UNL     1      47.102   0.685 102.883  1.00  0.00    -0.046 A 
HETATM   12  C11 UNL     1      48.250   2.180 104.662  1.00  0.00     0.262 C 
HETATM   13  C12 UNL     1      50.581   1.402 104.238  1.00  0.00     0.274 C 
HETATM   14  C13 UNL     1      47.159  -0.000 100.129  1.00  0.00     0.099 A 
HETATM   15  C14 UNL     1      47.068   1.211 104.291  1.00  0.00     0.078 C 
HETATM   16  C15 UNL     1      46.221  -0.271 102.371  1.00  0.00     0.011 A 
HETATM   17  N1  UNL     1      49.400   1.344 105.128  1.00  0.00     0.096 N 
HETATM   18  C16 UNL     1      46.262  -0.625 101.005  1.00  0.00     0.040 A 
ENDROOT
BRANCH  17  19
HETATM   19  C17 UNL     1      49.838   1.685 106.496  1.00  0.00     0.277 C 
BRANCH  19  20
HETATM   20  C18 UNL     1      50.730   0.717 107.216  1.00  0.00     0.014 A 
HETATM   21  C19 UNL     1      50.331   0.056 108.511  1.00  0.00     0.007 A 
HETATM   22  C20 UNL     1      51.504   1.001 108.477  1.00  0.00     0.007 A 
ENDBRANCH  19  20
ENDBRANCH  17  19
BRANCH   8  23
HETATM   23  O2  UNL     1      49.697   4.018 103.839  1.00  0.00    -0.386 OA
HETATM   24  H19 UNL     1      49.345   4.925 103.882  1.00  0.00     0.210 HD
ENDBRANCH   8  23
BRANCH   1  25
HETATM   25  O4  UNL     1      48.525   4.732  99.497  1.00  0.00    -0.393 OA
HETATM   26  H21 UNL     1      47.707   5.065  99.080  1.00  0.00     0.210 HD
ENDBRANCH   1  25
BRANCH  14  27
HETATM   27  O3  UNL     1      47.177  -0.287  98.800  1.00  0.00    -0.358 OA
HETATM   28  H20 UNL     1      48.077  -0.544  98.547  1.00  0.00     0.217 HD
ENDBRANCH  14  27
TORSDOF 5
ENDMDL
