MODEL 1
REMARK VINA RESULT:      -5.3      0.000      0.000
REMARK  3 active torsions:
REMARK  status: ('A' for Active; 'I' for Inactive)
REMARK    1  A    between atoms: C6_6  and  N1_7 
REMARK       I    between atoms: N1_7  and  C7_8 
REMARK    2  A    between atoms: C7_8  and  C9_10 
REMARK    3  A    between atoms: C16_19  and  O2_20 
ROOT
HETATM    1  N1  UNL     1      47.233  -5.978 104.618  1.00  0.00    -0.298 N 
HETATM    2  C7  UNL     1      47.337  -5.078 105.707  1.00  0.00     0.225 C 
HETATM    3  C8  UNL     1      46.088  -5.953 103.714  1.00  0.00     0.131 A 
HETATM    4  O1  UNL     1      48.360  -5.245 106.473  1.00  0.00    -0.273 OA
HETATM    5  C11 UNL     1      46.282  -6.988 102.613  1.00  0.00     0.072 A 
HETATM    6  C12 UNL     1      45.059  -7.027 101.738  1.00  0.00     0.275 C 
HETATM    7  N2  UNL     1      44.715  -5.734 101.241  1.00  0.00     0.084 N 
HETATM    8  C13 UNL     1      45.697  -4.738 101.569  1.00  0.00     0.275 C 
HETATM    9  C14 UNL     1      45.962  -4.622 103.060  1.00  0.00     0.072 A 
HETATM   10  C15 UNL     1      44.610  -5.719  99.778  1.00  0.00     0.309 C 
HETATM   11  C16 UNL     1      44.856  -6.283 104.465  1.00  0.00     0.287 A 
HETATM   12  O3  UNL     1      43.700  -6.070 104.035  1.00  0.00    -0.262 OA
HETATM   13 CL1  UNL     1      46.224  -6.037 103.341  1.00  0.00    -0.145 Cl
HETATM   14  H25 UNL     1      46.854  -6.165 104.546  1.00  0.00     0.145 HD
ENDROOT
BRANCH   1  15
HETATM   15  C6  UNL     1      48.281  -6.917 104.451  1.00  0.00     0.038 A 
HETATM   16  C1  UNL     1      48.283  -8.059 105.211  1.00  0.00     0.030 A 
HETATM   17  C2  UNL     1      49.273  -9.024 105.093  1.00  0.00     0.002 A 
HETATM   18  C3  UNL     1      50.280  -8.812 104.176  1.00  0.00     0.000 A 
HETATM   19  C4  UNL     1      50.317  -7.671 103.390  1.00  0.00     0.002 A 
HETATM   20  C5  UNL     1      49.295  -6.738 103.552  1.00  0.00     0.030 A 
ENDBRANCH   1  15
BRANCH   2  21
HETATM   21  C9  UNL     1      46.429  -3.992 106.058  1.00  0.00     0.099 C 
HETATM   22  C10 UNL     1      47.204  -2.676 106.092  1.00  0.00     0.014 C 
ENDBRANCH   2  21
BRANCH  11  23
HETATM   23  O2  UNL     1      44.928  -6.869 105.731  1.00  0.00    -0.325 OA
HETATM   24  C17 UNL     1      44.641  -8.228 105.969  1.00  0.00     0.213 C 
ENDBRANCH  11  23
TORSDOF 3
ENDMDL
