MODEL 1
REMARK VINA RESULT:      -7.7      0.000      0.000
REMARK  3 active torsions:
REMARK  status: ('A' for Active; 'I' for Inactive)
REMARK    1  A    between atoms: C5_5  and  C7_7 
REMARK    2  A    between atoms: C9_10  and  C10_11 
REMARK    3  A    between atoms: C11_12  and  O1_17 
ROOT
HETATM    1  C7  UNL     1      47.701   1.771 104.210  1.00  0.00     0.073 A 
HETATM    2  C8  UNL     1      49.132   1.265 104.232  1.00  0.00     0.221 A 
HETATM    3  N1  UNL     1      49.672   1.660 105.520  1.00  0.00     0.092 N 
HETATM    4  C9  UNL     1      50.936   1.032 105.803  1.00  0.00     0.311 A 
HETATM    5  C17 UNL     1      49.909   1.867 103.078  1.00  0.00     0.043 A 
HETATM    6 CL1  UNL     1      49.095   1.294 104.033  1.00  0.00    -0.145 Cl
HETATM    7  H8  UNL     1      49.735   2.705 105.548  1.00  0.00     0.316 HD
HETATM    8  H24 UNL     1      49.944   1.282 105.116  1.00  0.00     0.145 HD
ENDROOT
BRANCH   4   9
HETATM    9  C10 UNL     1      51.392   1.487 107.147  1.00  0.00     0.003 A 
HETATM   10  C11 UNL     1      51.870   2.780 107.224  1.00  0.00     0.076 A 
HETATM   11  C12 UNL     1      52.296   3.221 108.458  1.00  0.00     0.037 A 
HETATM   12  C13 UNL     1      52.258   2.422 109.584  1.00  0.00     0.003 A 
HETATM   13  C14 UNL     1      51.779   1.137 109.483  1.00  0.00     0.001 A 
HETATM   14  C15 UNL     1      51.346   0.663 108.273  1.00  0.00     0.012 A 
BRANCH  10  15
HETATM   15  O1  UNL     1      51.914   3.593 106.099  1.00  0.00    -0.355 OA
HETATM   16  C16 UNL     1      51.445   4.905 106.064  1.00  0.00     0.210 C 
ENDBRANCH  10  15
ENDBRANCH   4   9
BRANCH   1  17
HETATM   17  C5  UNL     1      47.033   1.423 102.934  1.00  0.00    -0.056 A 
HETATM   18  C4  UNL     1      46.807   2.353 101.944  1.00  0.00     0.007 A 
HETATM   19  C3  UNL     1      46.185   2.009 100.762  1.00  0.00     0.007 A 
HETATM   20  C2  UNL     1      45.781   0.706 100.566  1.00  0.00    -0.062 A 
HETATM   21  C1  UNL     1      45.984  -0.260 101.524  1.00  0.00     0.007 A 
HETATM   22  C18 UNL     1      45.109   0.324  99.293  1.00  0.00     0.048 C 
HETATM   23  C6  UNL     1      46.606   0.130 102.680  1.00  0.00     0.007 A 
ENDBRANCH   1  17
TORSDOF 3
ENDMDL
