MODEL 1
REMARK VINA RESULT:      -6.7      0.000      0.000
REMARK  5 active torsions:
REMARK  status: ('A' for Active; 'I' for Inactive)
REMARK    1  A    between atoms: N1_4  and  C5_7 
REMARK    2  A    between atoms: C5_7  and  C6_8 
REMARK    3  A    between atoms: C6_8  and  C7_9 
REMARK    4  A    between atoms: C7_9  and  C9_11 
REMARK    5  A    between atoms: C12_14  and  C15_17 
ROOT
HETATM    1  C6  UNL     1      48.001   1.432 102.458  1.00  0.00     0.014 C 
HETATM    2  C8  UNL     1      46.796   0.863 101.701  1.00  0.00     0.012 C 
ENDROOT
BRANCH   1   3
HETATM    3  C5  UNL     1      48.089   2.958 102.222  1.00  0.00     0.277 C 
BRANCH   3   4
HETATM    4  N1  UNL     1      49.387   3.416 101.709  1.00  0.00     0.093 N 
HETATM    5  C2  UNL     1      49.699   2.974 100.338  1.00  0.00     0.303 C 
HETATM    6  C1  UNL     1      49.530   4.034  99.222  1.00  0.00     0.146 C 
HETATM    7  O1  UNL     1      50.166   5.292  99.502  1.00  0.00    -0.378 OA
HETATM    8  C19 UNL     1      48.071   4.303  98.868  1.00  0.00     0.041 C 
HETATM    9  C4  UNL     1      50.578   5.449 100.868  1.00  0.00     0.146 C 
HETATM   10  C3  UNL     1      49.527   4.880 101.842  1.00  0.00     0.303 C 
HETATM   11  C20 UNL     1      50.794   6.938 101.106  1.00  0.00     0.041 C 
ENDBRANCH   3   4
ENDBRANCH   1   3
BRANCH   1  12
HETATM   12  C7  UNL     1      48.001   1.018 103.948  1.00  0.00     0.044 C 
BRANCH  12  13
HETATM   13  C9  UNL     1      49.119   1.570 104.800  1.00  0.00    -0.058 A 
HETATM   14  C10 UNL     1      48.938   2.739 105.540  1.00  0.00     0.007 A 
HETATM   15  C11 UNL     1      49.970   3.250 106.334  1.00  0.00     0.008 A 
HETATM   16  C12 UNL     1      51.224   2.613 106.412  1.00  0.00    -0.051 A 
HETATM   17  C13 UNL     1      51.394   1.444 105.655  1.00  0.00     0.008 A 
HETATM   18  C14 UNL     1      50.360   0.932 104.860  1.00  0.00     0.007 A 
BRANCH  16  19
HETATM   19  C15 UNL     1      52.336   3.203 107.297  1.00  0.00    -0.024 C 
HETATM   20  C16 UNL     1      52.373   2.457 108.648  1.00  0.00     0.019 C 
HETATM   21  C17 UNL     1      52.059   4.701 107.549  1.00  0.00     0.019 C 
HETATM   22  C18 UNL     1      53.748   3.096 106.677  1.00  0.00     0.019 C 
ENDBRANCH  16  19
ENDBRANCH  12  13
ENDBRANCH   1  12
TORSDOF 5
ENDMDL
