MODEL 1
REMARK VINA RESULT:      -7.9      0.000      0.000
REMARK  7 active torsions:
REMARK  status: ('A' for Active; 'I' for Inactive)
REMARK    1  A    between atoms: C2_2  and  C9_11 
REMARK    2  A    between atoms: C4_4  and  O2_9 
REMARK    3  A    between atoms: C6_6  and  O1_7 
REMARK    4  A    between atoms: C10_12  and  C11_13 
REMARK    5  A    between atoms: N2_15  and  C16_23 
REMARK    6  A    between atoms: C14_18  and  N5_22 
REMARK       I    between atoms: N6_26  and  C20_28 
REMARK    7  A    between atoms: C20_28  and  C21_30 
ROOT
HETATM    1  C11 UNL     1      48.309   1.529 102.831  1.00  0.00     0.148 A 
HETATM    2  N1  UNL     1      47.263   0.703 102.954  1.00  0.00    -0.160 NA
HETATM    3  N2  UNL     1      46.689   0.748 101.728  1.00  0.00    -0.244 N 
HETATM    4  C12 UNL     1      47.366   1.552 100.844  1.00  0.00     0.164 A 
HETATM    5  C13 UNL     1      48.440   2.077 101.541  1.00  0.00     0.091 A 
HETATM    6  C14 UNL     1      49.291   2.934 100.840  1.00  0.00     0.119 A 
HETATM    7  N3  UNL     1      49.014   3.199  99.546  1.00  0.00    -0.229 NA
HETATM    8  C15 UNL     1      47.926   2.629  98.988  1.00  0.00     0.237 A 
HETATM    9  N4  UNL     1      47.050   1.784  99.558  1.00  0.00    -0.222 NA
ENDROOT
BRANCH   1  10
HETATM   10  C10 UNL     1      49.132   1.737 103.974  1.00  0.00    -0.038 C 
HETATM   11  C9  UNL     1      49.832   1.904 104.936  1.00  0.00    -0.060 C 
BRANCH  11  12
HETATM   12  C2  UNL     1      50.667   2.107 106.080  1.00  0.00     0.023 A 
HETATM   13  C1  UNL     1      50.648   1.176 107.125  1.00  0.00     0.057 A 
HETATM   14  C6  UNL     1      51.460   1.369 108.240  1.00  0.00     0.072 A 
HETATM   15  C5  UNL     1      52.291   2.494 108.295  1.00  0.00     0.073 A 
HETATM   16  C4  UNL     1      52.315   3.429 107.257  1.00  0.00     0.072 A 
HETATM   17  C3  UNL     1      51.496   3.234 106.146  1.00  0.00     0.057 A 
BRANCH  14  18
HETATM   18  O1  UNL     1      51.539   0.543 109.329  1.00  0.00    -0.356 OA
HETATM   19  C7  UNL     1      50.453  -0.354 109.540  1.00  0.00     0.210 C 
ENDBRANCH  14  18
BRANCH  16  20
HETATM   20  O2  UNL     1      53.175   4.477 107.449  1.00  0.00    -0.356 OA
HETATM   21  C8  UNL     1      53.863   4.968 106.306  1.00  0.00     0.210 C 
ENDBRANCH  16  20
ENDBRANCH  11  12
ENDBRANCH   1  10
BRANCH   3  22
HETATM   22  C16 UNL     1      45.502  -0.032 101.408  1.00  0.00     0.132 C 
HETATM   23  C17 UNL     1      45.553  -0.775 100.068  1.00  0.00     0.049 C 
HETATM   24  C18 UNL     1      46.235  -2.093 100.411  1.00  0.00     0.128 C 
HETATM   25  N6  UNL     1      45.865  -2.351 101.794  1.00  0.00    -0.347 N 
HETATM   26  C19 UNL     1      45.284  -1.165 102.412  1.00  0.00     0.153 C 
HETATM   27  C20 UNL     1      46.034  -3.503 102.525  1.00  0.00     0.242 C 
HETATM   28  O3  UNL     1      45.639  -3.612 103.683  1.00  0.00    -0.268 OA
BRANCH  27  29
HETATM   29  C21 UNL     1      46.727  -4.630 101.842  1.00  0.00     0.064 C 
HETATM   30  C22 UNL     1      47.185  -5.673 102.547  1.00  0.00     0.017 C 
ENDBRANCH  27  29
ENDBRANCH   3  22
BRANCH   6  31
HETATM   31  N5  UNL     1      50.425   3.528 101.374  1.00  0.00    -0.286 NA
HETATM   32  H11 UNL     1      50.958   4.000 100.651  1.00  0.00     0.125 HD
HETATM   33  H12 UNL     1      50.954   2.959 102.019  1.00  0.00     0.125 HD
ENDBRANCH   6  31
TORSDOF 7
ENDMDL
