MODEL 1
REMARK VINA RESULT:      -7.5      0.000      0.000
REMARK  4 active torsions:
REMARK  status: ('A' for Active; 'I' for Inactive)
REMARK    1  A    between atoms: C1_1  and  O2_15 
REMARK    2  A    between atoms: C12_13  and  O3_16 
REMARK    3  A    between atoms: C18_22  and  C21_26 
REMARK    4  A    between atoms: C21_26  and  O6_27 
ROOT
HETATM    1  C1  UNL     1      50.164   5.943 102.545  1.00  0.00     0.068 A 
HETATM    2  C2  UNL     1      50.724   5.895 101.274  1.00  0.00     0.037 A 
HETATM    3  C3  UNL     1      50.254   4.956 100.352  1.00  0.00     0.016 A 
HETATM    4  C4  UNL     1      49.227   4.057 100.699  1.00  0.00     0.020 A 
HETATM    5  C5  UNL     1      48.692   4.121 101.991  1.00  0.00     0.088 A 
HETATM    6  C6  UNL     1      49.150   5.067 102.909  1.00  0.00     0.074 A 
HETATM    7  C7  UNL     1      48.643   3.063  99.714  1.00  0.00     0.159 A 
HETATM    8  C8  UNL     1      47.914   1.933 100.413  1.00  0.00     0.020 A 
HETATM    9  C9  UNL     1      47.461   2.130 101.723  1.00  0.00     0.088 A 
HETATM   10  O1  UNL     1      47.697   3.283 102.433  1.00  0.00    -0.309 OA
HETATM   11  C10 UNL     1      47.628   0.709  99.780  1.00  0.00     0.016 A 
HETATM   12  C11 UNL     1      46.904  -0.287 100.443  1.00  0.00     0.037 A 
HETATM   13  C12 UNL     1      46.455  -0.057 101.739  1.00  0.00     0.068 A 
HETATM   14  C13 UNL     1      46.725   1.144 102.382  1.00  0.00     0.074 A 
HETATM   15  C14 UNL     1      47.793   3.729  98.674  1.00  0.00     0.004 A 
HETATM   16  C15 UNL     1      48.368   3.540  97.432  1.00  0.00     0.049 A 
HETATM   17  C16 UNL     1      49.588   2.765  97.590  1.00  0.00     0.295 A 
HETATM   18  O4  UNL     1      49.725   2.501  98.921  1.00  0.00    -0.291 OA
HETATM   19  C17 UNL     1      46.608   4.445  98.794  1.00  0.00     0.030 A 
HETATM   20  C18 UNL     1      46.015   4.968  97.632  1.00  0.00     0.038 A 
HETATM   21  C19 UNL     1      46.621   4.763  96.373  1.00  0.00     0.019 A 
HETATM   22  C20 UNL     1      47.812   4.041  96.268  1.00  0.00     0.019 A 
HETATM   23  O5  UNL     1      50.339   2.421  96.701  1.00  0.00    -0.259 OA
ENDROOT
BRANCH  20  24
HETATM   24  C21 UNL     1      44.751   5.730  97.776  1.00  0.00     0.176 C 
HETATM   25  O7  UNL     1      43.629   5.261  97.737  1.00  0.00    -0.646 OA
BRANCH  24  26
HETATM   26  O6  UNL     1      44.955   7.046  97.959  1.00  0.00    -0.773 OA
HETATM   27  H12 UNL     1      45.110   7.389  97.053  1.00  0.00     0.167 HD
ENDBRANCH  24  26
ENDBRANCH  20  24
BRANCH   1  28
HETATM   28  O2  UNL     1      50.588   6.846 103.474  1.00  0.00    -0.361 OA
HETATM   29  H7  UNL     1      51.156   6.393 104.118  1.00  0.00     0.217 HD
ENDBRANCH   1  28
BRANCH  13  30
HETATM   30  O3  UNL     1      45.741  -0.997 102.420  1.00  0.00    -0.361 OA
HETATM   31  H8  UNL     1      45.485  -0.633 103.283  1.00  0.00     0.217 HD
ENDBRANCH  13  30
TORSDOF 4
ENDMDL
