MODEL 1
REMARK VINA RESULT:      -8.0      0.000      0.000
REMARK  5 active torsions:
REMARK  status: ('A' for Active; 'I' for Inactive)
REMARK    1  A    between atoms: C1_1  and  C14_18 
REMARK    2  A    between atoms: C6_6  and  N1_8 
REMARK       I    between atoms: N1_8  and  C7_9 
REMARK    3  A    between atoms: C7_9  and  C8_10 
REMARK    4  A    between atoms: C13_16  and  O2_17 
REMARK    5  A    between atoms: C14_18  and  N2_19 
ROOT
HETATM    1  C1  UNL     1      49.378   3.082 104.506  1.00  0.00    -0.011 A 
HETATM    2  C2  UNL     1      50.258   3.350 105.579  1.00  0.00     0.035 A 
HETATM    3  C3  UNL     1      50.973   2.327 106.193  1.00  0.00     0.034 A 
HETATM    4  C4  UNL     1      50.831   1.022 105.753  1.00  0.00     0.026 A 
HETATM    5  C5  UNL     1      49.977   0.740 104.681  1.00  0.00     0.032 A 
HETATM    6  C6  UNL     1      49.250   1.755 104.037  1.00  0.00     0.043 A 
HETATM    7 CL1  UNL     1      52.031   2.682 107.501  1.00  0.00    -0.084 Cl
ENDROOT
BRANCH   1   8
HETATM    8  C14 UNL     1      48.595   4.251 103.949  1.00  0.00     0.176 C 
BRANCH   8   9
HETATM    9  N2  UNL     1      49.345   4.979 102.953  1.00  0.00    -0.276 N 
HETATM   10  C15 UNL     1      49.288   4.733 101.610  1.00  0.00     0.262 A 
HETATM   11  C16 UNL     1      50.181   5.701 100.973  1.00  0.00     0.048 A 
HETATM   12  O3  UNL     1      48.649   3.890 101.009  1.00  0.00    -0.267 OA
HETATM   13  C17 UNL     1      50.738   6.476 101.975  1.00  0.00     0.048 A 
HETATM   14  C22 UNL     1      50.488   5.896  99.641  1.00  0.00     0.018 A 
HETATM   15  C18 UNL     1      50.196   6.004 103.246  1.00  0.00     0.262 A 
HETATM   16  C19 UNL     1      51.634   7.490 101.703  1.00  0.00     0.018 A 
HETATM   17  O4  UNL     1      50.472   6.463 104.340  1.00  0.00    -0.267 OA
HETATM   18  C20 UNL     1      51.963   7.707 100.361  1.00  0.00     0.001 A 
HETATM   19  C21 UNL     1      51.395   6.918  99.339  1.00  0.00     0.001 A 
ENDBRANCH   8   9
ENDBRANCH   1   8
BRANCH   6  20
HETATM   20  N1  UNL     1      48.438   1.461 102.912  1.00  0.00    -0.322 N 
HETATM   21  C7  UNL     1      47.239   0.762 102.944  1.00  0.00     0.259 C 
HETATM   22  O1  UNL     1      46.629   0.420 103.955  1.00  0.00    -0.267 OA
HETATM   23  H4  UNL     1      48.710   1.865 102.017  1.00  0.00     0.169 HD
BRANCH  21  24
HETATM   24  C8  UNL     1      46.585   0.493 101.636  1.00  0.00     0.065 A 
HETATM   25  C9  UNL     1      46.468  -0.809 101.131  1.00  0.00     0.020 A 
HETATM   26  C10 UNL     1      45.862  -1.031  99.891  1.00  0.00     0.001 A 
HETATM   27  C11 UNL     1      45.357   0.040  99.156  1.00  0.00     0.003 A 
HETATM   28  C12 UNL     1      45.440   1.336  99.663  1.00  0.00     0.037 A 
HETATM   29  C13 UNL     1      46.038   1.558 100.902  1.00  0.00     0.081 A 
BRANCH  29  30
HETATM   30  O2  UNL     1      46.051   2.855 101.346  1.00  0.00    -0.360 OA
HETATM   31  H9  UNL     1      46.395   2.848 102.268  1.00  0.00     0.217 HD
ENDBRANCH  29  30
ENDBRANCH  21  24
ENDBRANCH   6  20
TORSDOF 5
ENDMDL
