MODEL 1
REMARK VINA RESULT:      -7.7      0.000      0.000
REMARK  0 active torsions:
REMARK  status: ('A' for Active; 'I' for Inactive)
ROOT
HETATM    1  C1  UNL     1      51.068   6.603 102.537  1.00  0.00     0.084 C 
HETATM    2  C2  UNL     1      50.199   5.602 101.820  1.00  0.00     0.149 C 
HETATM    3  C3  UNL     1      50.041   5.713 100.353  1.00  0.00     0.058 C 
HETATM    4  C4  UNL     1      50.662   6.670  99.644  1.00  0.00    -0.046 C 
HETATM    5  C5  UNL     1      51.572   7.734 100.281  1.00  0.00    -0.012 C 
HETATM    6  C6  UNL     1      51.167   7.916 101.769  1.00  0.00     0.022 C 
HETATM    7  C7  UNL     1      50.452   6.732  98.205  1.00  0.00     0.004 C 
HETATM    8  C8  UNL     1      50.898   7.737  97.439  1.00  0.00    -0.021 C 
HETATM    9  C9  UNL     1      51.643   8.926  97.982  1.00  0.00     0.018 C 
HETATM   10  C10 UNL     1      51.373   9.088  99.512  1.00  0.00     0.006 C 
HETATM   11  C11 UNL     1      51.272  10.247  97.290  1.00  0.00     0.005 C 
HETATM   12  C12 UNL     1      52.111  11.442  97.804  1.00  0.00    -0.008 C 
HETATM   13  C13 UNL     1      51.849  11.599  99.314  1.00  0.00     0.013 C 
HETATM   14  C14 UNL     1      52.140  10.301 100.093  1.00  0.00     0.007 C 
HETATM   15  C15 UNL     1      51.419  10.341  95.774  1.00  0.00     0.009 C 
HETATM   16  C16 UNL     1      51.498  11.850  95.482  1.00  0.00     0.040 C 
HETATM   17  C17 UNL     1      51.599  12.569  96.860  1.00  0.00     0.079 C 
HETATM   18  O1  UNL     1      52.515  13.665  96.771  1.00  0.00    -0.309 OA
HETATM   19  C18 UNL     1      51.837  14.812  96.467  1.00  0.00     0.259 C 
HETATM   20  C19 UNL     1      50.361  14.554  96.475  1.00  0.00     0.114 C 
HETATM   21  C20 UNL     1      50.286  13.247  97.235  1.00  0.00     0.049 C 
HETATM   22  O2  UNL     1      52.370  15.878  96.206  1.00  0.00    -0.265 OA
HETATM   23  O3  UNL     1      49.653   4.673 102.413  1.00  0.00    -0.293 OA
HETATM   24  C21 UNL     1      53.037   7.246 100.210  1.00  0.00     0.021 C 
HETATM   25  C22 UNL     1      53.645  11.267  97.596  1.00  0.00     0.019 C 
ENDROOT
TORSDOF 0
ENDMDL
