MODEL 1
REMARK VINA RESULT:      -7.8      0.000      0.000
REMARK  13 active torsions:
REMARK  status: ('A' for Active; 'I' for Inactive)
REMARK    1  A    between atoms: C1_1  and  C6_7 
REMARK    2  A    between atoms: C2_3  and  C7_8 
REMARK    3  A    between atoms: C3_4  and  O3_10 
REMARK    4  A    between atoms: C4_5  and  O2_9 
REMARK    5  A    between atoms: C5_6  and  O4_11 
REMARK    6  A    between atoms: C7_8  and  O7_32 
REMARK    7  A    between atoms: C11_15  and  C13_18 
REMARK    8  A    between atoms: C13_18  and  C14_19 
REMARK    9  A    between atoms: C17_22  and  O5_25 
REMARK   10  A    between atoms: O5_25  and  C20_26 
REMARK   11  A    between atoms: C20_26  and  C21_27 
REMARK   12  A    between atoms: C21_27  and  O6_28 
REMARK   13  A    between atoms: O6_28  and  C22_29 
ROOT
HETATM    1  C6  UNL     1      49.806   1.417 105.350  1.00  0.00    -0.026 A 
HETATM    2  C8  UNL     1      49.715   0.212 106.058  1.00  0.00     0.011 A 
HETATM    3  C9  UNL     1      50.398   0.052 107.266  1.00  0.00     0.025 A 
HETATM    4  C10 UNL     1      51.177   1.089 107.785  1.00  0.00     0.040 A 
HETATM    5  C11 UNL     1      51.283   2.308 107.102  1.00  0.00    -0.032 A 
HETATM    6  C12 UNL     1      50.591   2.454 105.885  1.00  0.00     0.019 A 
HETATM    7 CL1  UNL     1      51.968   0.806 109.294  1.00  0.00    -0.084 Cl
ENDROOT
BRANCH   1   8
HETATM    8  C1  UNL     1      49.054   1.600 104.042  1.00  0.00     0.186 C 
HETATM    9  O1  UNL     1      50.034   1.741 103.004  1.00  0.00    -0.368 OA
HETATM   10  C2  UNL     1      49.443   1.878 101.697  1.00  0.00     0.177 C 
HETATM   11  C3  UNL     1      48.578   3.141 101.635  1.00  0.00     0.180 C 
HETATM   12  C4  UNL     1      47.503   3.072 102.722  1.00  0.00     0.181 C 
HETATM   13  C5  UNL     1      48.124   2.834 104.101  1.00  0.00     0.182 C 
BRANCH  10  14
HETATM   14  C7  UNL     1      50.591   1.927 100.681  1.00  0.00     0.198 C 
BRANCH  14  15
HETATM   15  O7  UNL     1      50.057   1.871  99.357  1.00  0.00    -0.398 OA
HETATM   16  H29 UNL     1      49.359   2.553  99.326  1.00  0.00     0.209 HD
ENDBRANCH  14  15
ENDBRANCH  10  14
BRANCH  11  17
HETATM   17  O3  UNL     1      47.946   3.278 100.361  1.00  0.00    -0.390 OA
HETATM   18  H9  UNL     1      46.986   3.215 100.542  1.00  0.00     0.210 HD
ENDBRANCH  11  17
BRANCH  12  19
HETATM   19  O2  UNL     1      46.760   4.303 102.724  1.00  0.00    -0.390 OA
HETATM   20  H8  UNL     1      46.277   4.310 101.873  1.00  0.00     0.210 HD
ENDBRANCH  12  19
BRANCH  13  21
HETATM   21  O4  UNL     1      47.046   2.668 105.036  1.00  0.00    -0.390 OA
HETATM   22  H10 UNL     1      47.118   3.394 105.687  1.00  0.00     0.210 HD
ENDBRANCH  13  21
ENDBRANCH   1   8
BRANCH   5  23
HETATM   23  C13 UNL     1      52.123   3.465 107.605  1.00  0.00     0.078 C 
BRANCH  23  24
HETATM   24  C14 UNL     1      52.421   4.522 106.565  1.00  0.00    -0.054 A 
HETATM   25  C15 UNL     1      53.741   4.782 106.171  1.00  0.00     0.010 A 
HETATM   26  C16 UNL     1      54.030   5.776 105.227  1.00  0.00     0.037 A 
HETATM   27  C17 UNL     1      53.002   6.526 104.661  1.00  0.00     0.068 A 
HETATM   28  C18 UNL     1      51.685   6.268 105.047  1.00  0.00     0.037 A 
HETATM   29  C19 UNL     1      51.392   5.280 105.993  1.00  0.00     0.010 A 
BRANCH  27  30
HETATM   30  O5  UNL     1      53.131   7.522 103.735  1.00  0.00    -0.349 OA
BRANCH  30  31
HETATM   31  C20 UNL     1      52.231   7.564 102.624  1.00  0.00     0.201 C 
BRANCH  31  32
HETATM   32  C21 UNL     1      52.681   6.636 101.496  1.00  0.00     0.195 C 
BRANCH  32  33
HETATM   33  O6  UNL     1      52.718   7.363 100.264  1.00  0.00    -0.384 OA
BRANCH  33  34
HETATM   34  C22 UNL     1      52.225   8.710 100.396  1.00  0.00     0.121 A 
HETATM   35  C23 UNL     1      52.897   9.740  99.532  1.00  0.00     0.034 A 
HETATM   36  C24 UNL     1      51.523   9.249  99.181  1.00  0.00     0.034 A 
ENDBRANCH  33  34
ENDBRANCH  32  33
ENDBRANCH  31  32
ENDBRANCH  30  31
ENDBRANCH  27  30
ENDBRANCH  23  24
ENDBRANCH   5  23
TORSDOF 13
ENDMDL
