MODEL 1
REMARK VINA RESULT:      -9.0      0.000      0.000
REMARK  5 active torsions:
REMARK  status: ('A' for Active; 'I' for Inactive)
REMARK    1  A    between atoms: C5_5  and  C7_8 
REMARK    2  A    between atoms: C7_8  and  C8_9 
REMARK    3  A    between atoms: N1_19  and  C19_22 
REMARK    4  A    between atoms: C19_22  and  C20_23 
REMARK    5  A    between atoms: C20_23  and  C21_24 
ROOT
HETATM    1  C7  UNL     1      50.290   1.941 105.827  1.00  0.00    -0.013 C 
HETATM    2  C9  UNL     1      49.466   2.175 104.770  1.00  0.00    -0.065 C 
HETATM    3  C15 UNL     1      48.367   1.213 104.329  1.00  0.00     0.065 C 
HETATM    4  C16 UNL     1      47.947   1.440 102.867  1.00  0.00     0.276 C 
HETATM    5  N1  UNL     1      47.416   2.791 102.655  1.00  0.00     0.089 N 
HETATM    6  C17 UNL     1      48.137   3.840 103.389  1.00  0.00     0.276 C 
HETATM    7  C18 UNL     1      49.528   3.425 103.899  1.00  0.00     0.065 C 
ENDROOT
BRANCH   1   8
HETATM    8  C5  UNL     1      51.373   2.904 106.146  1.00  0.00    -0.025 A 
HETATM    9  C4  UNL     1      52.682   2.441 106.345  1.00  0.00     0.015 A 
HETATM   10  C3  UNL     1      53.707   3.344 106.640  1.00  0.00     0.043 A 
HETATM   11  C2  UNL     1      53.422   4.701 106.725  1.00  0.00     0.116 A 
HETATM   12  C1  UNL     1      52.131   5.178 106.524  1.00  0.00     0.043 A 
HETATM   13  F1  UNL     1      54.405   5.565 107.007  1.00  0.00    -0.206 F 
HETATM   14  C6  UNL     1      51.104   4.279 106.234  1.00  0.00     0.015 A 
ENDBRANCH   1   8
BRANCH   1  15
HETATM   15  C8  UNL     1      50.099   0.729 106.661  1.00  0.00    -0.025 A 
HETATM   16  C10 UNL     1      50.179   0.807 108.061  1.00  0.00     0.015 A 
HETATM   17  C11 UNL     1      50.017  -0.340 108.838  1.00  0.00     0.043 A 
HETATM   18  C12 UNL     1      49.780  -1.561 108.218  1.00  0.00     0.116 A 
HETATM   19  C13 UNL     1      49.702  -1.659 106.833  1.00  0.00     0.043 A 
HETATM   20  F2  UNL     1      49.628  -2.662 108.965  1.00  0.00    -0.206 F 
HETATM   21  C14 UNL     1      49.864  -0.513 106.053  1.00  0.00     0.015 A 
ENDBRANCH   1  15
BRANCH   5  22
HETATM   22  C19 UNL     1      47.135   3.103 101.249  1.00  0.00     0.277 C 
BRANCH  22  23
HETATM   23  C20 UNL     1      48.230   2.717 100.234  1.00  0.00     0.076 C 
BRANCH  23  24
HETATM   24  C21 UNL     1      48.610   3.887  99.358  1.00  0.00     0.036 A 
HETATM   25  C22 UNL     1      47.986   4.270  98.223  1.00  0.00     0.045 A 
HETATM   26  N2  UNL     1      48.351   5.370  97.476  1.00  0.00    -0.228 NA
HETATM   27  C27 UNL     1      46.830   3.511  97.622  1.00  0.00     0.071 C 
HETATM   28  C23 UNL     1      49.351   6.050  97.914  1.00  0.00     0.180 A 
HETATM   29  N3  UNL     1      50.080   5.784  99.043  1.00  0.00    -0.267 N 
HETATM   30  S1  UNL     1      49.999   7.484  97.131  1.00  0.00    -0.062 SA
HETATM   31  C24 UNL     1      49.773   4.703  99.830  1.00  0.00     0.262 A 
HETATM   32  C26 UNL     1      51.110   6.667  99.283  1.00  0.00     0.110 A 
HETATM   33  O1  UNL     1      50.389   4.389 100.846  1.00  0.00    -0.267 OA
HETATM   34  C25 UNL     1      51.217   7.637  98.365  1.00  0.00     0.071 A 
ENDBRANCH  23  24
ENDBRANCH  22  23
ENDBRANCH   5  22
TORSDOF 5
ENDMDL
