MODEL 1
REMARK VINA RESULT:      -5.7      0.000      0.000
REMARK  11 active torsions:
REMARK  status: ('A' for Active; 'I' for Inactive)
REMARK    1  A    between atoms: C1_1  and  C6_7 
REMARK    2  A    between atoms: C2_3  and  S1_13 
REMARK    3  A    between atoms: C3_4  and  O3_24 
REMARK    4  A    between atoms: C4_5  and  O4_25 
REMARK    5  A    between atoms: C5_6  and  O5_26 
REMARK    6  A    between atoms: C6_7  and  N1_8 
REMARK    7  A    between atoms: C6_7  and  C7_9 
REMARK       I    between atoms: N1_8  and  C9_11 
REMARK    8  A    between atoms: C7_9  and  O6_27 
REMARK    9  A    between atoms: C9_11  and  C12_16 
REMARK   10  A    between atoms: C14_19  and  C16_21 
REMARK   11  A    between atoms: C16_21  and  C17_22 
ROOT
HETATM    1  C6  UNL     1      51.199   7.942  99.471  1.00  0.00     0.144 C 
ENDROOT
BRANCH   1   2
HETATM    2  C1  UNL     1      50.648   8.958  98.430  1.00  0.00     0.179 C 
HETATM    3  O1  UNL     1      51.733   9.369  97.568  1.00  0.00    -0.363 OA
HETATM    4  C2  UNL     1      51.389  10.403  96.619  1.00  0.00     0.214 C 
HETATM    5  C3  UNL     1      50.265   9.909  95.689  1.00  0.00     0.188 C 
HETATM    6  C4  UNL     1      49.070   9.400  96.500  1.00  0.00     0.181 C 
HETATM    7  C5  UNL     1      49.523   8.372  97.549  1.00  0.00     0.180 C 
BRANCH   4   8
HETATM    8  S1  UNL     1      51.068  12.005  97.470  1.00  0.00    -0.139 SA
HETATM    9  C10 UNL     1      52.555  12.119  98.489  1.00  0.00     0.092 C 
ENDBRANCH   4   8
BRANCH   5  10
HETATM   10  O3  UNL     1      49.836  10.882  94.731  1.00  0.00    -0.389 OA
HETATM   11  H31 UNL     1      50.538  11.565  94.729  1.00  0.00     0.210 HD
ENDBRANCH   5  10
BRANCH   6  12
HETATM   12  O4  UNL     1      48.138   8.780  95.587  1.00  0.00    -0.390 OA
HETATM   13  H32 UNL     1      47.298   9.277  95.706  1.00  0.00     0.210 HD
ENDBRANCH   6  12
BRANCH   7  14
HETATM   14  O5  UNL     1      49.935   7.193  96.823  1.00  0.00    -0.390 OA
HETATM   15  H33 UNL     1      49.997   6.452  97.452  1.00  0.00     0.210 HD
ENDBRANCH   7  14
ENDBRANCH   1   2
BRANCH   1  16
HETATM   16  N1  UNL     1      50.180   6.954  99.837  1.00  0.00    -0.350 N 
HETATM   17  C9  UNL     1      50.450   5.908 100.699  1.00  0.00     0.251 C 
HETATM   18  O2  UNL     1      51.580   5.648 101.100  1.00  0.00    -0.271 OA
HETATM   19  H7  UNL     1      49.205   7.233  99.778  1.00  0.00     0.163 HD
BRANCH  17  20
HETATM   20  C12 UNL     1      49.190   5.180 101.178  1.00  0.00     0.314 C 
HETATM   21  C11 UNL     1      49.335   4.406 102.480  1.00  0.00     0.052 C 
HETATM   22  C14 UNL     1      48.216   3.356 102.421  1.00  0.00     0.016 C 
HETATM   23  C13 UNL     1      47.628   3.486 101.005  1.00  0.00     0.277 C 
HETATM   24  N2  UNL     1      48.635   4.203 100.196  1.00  0.00     0.098 N 
HETATM   25  C15 UNL     1      49.639   3.253  99.692  1.00  0.00     0.310 C 
BRANCH  22  26
HETATM   26  C16 UNL     1      47.172   3.561 103.523  1.00  0.00     0.006 C 
BRANCH  26  27
HETATM   27  C17 UNL     1      47.147   2.419 104.539  1.00  0.00    -0.004 C 
HETATM   28  C18 UNL     1      47.500   1.092 103.881  1.00  0.00     0.005 C 
ENDBRANCH  26  27
ENDBRANCH  22  26
ENDBRANCH  17  20
ENDBRANCH   1  16
BRANCH   1  29
HETATM   29  C7  UNL     1      51.724   8.607 100.774  1.00  0.00     0.139 C 
HETATM   30  C8  UNL     1      53.149   9.132 100.697  1.00  0.00     0.041 C 
BRANCH  29  31
HETATM   31  O6  UNL     1      50.846   9.678 101.148  1.00  0.00    -0.394 OA
HETATM   32  H34 UNL     1      50.882   9.749 102.118  1.00  0.00     0.210 HD
ENDBRANCH  29  31
ENDBRANCH   1  29
TORSDOF 11
ENDMDL
