MODEL 1
REMARK VINA RESULT:      -6.7      0.000      0.000
REMARK  9 active torsions:
REMARK  status: ('A' for Active; 'I' for Inactive)
REMARK    1  A    between atoms: C1_1  and  O4_15 
REMARK    2  A    between atoms: C2_2  and  N1_16 
REMARK    3  A    between atoms: C4_4  and  N2_17 
REMARK    4  A    between atoms: C6_6  and  O3_14 
REMARK    5  A    between atoms: C8_10  and  C12_18 
REMARK    6  A    between atoms: C9_11  and  O5_20 
REMARK    7  A    between atoms: C10_12  and  O6_21 
REMARK    8  A    between atoms: C11_13  and  N4_22 
REMARK    9  A    between atoms: C12_18  and  N3_19 
ROOT
HETATM    1  C1  UNL     1      50.699   7.547  98.900  1.00  0.00     0.182 C 
HETATM    2  C2  UNL     1      51.529   7.348 100.106  1.00  0.00     0.251 C 
HETATM    3  C3  UNL     1      52.757   8.222 100.163  1.00  0.00     0.076 C 
HETATM    4  C4  UNL     1      52.289   9.638  99.938  1.00  0.00     0.251 C 
HETATM    5  C5  UNL     1      51.818   9.787  98.521  1.00  0.00     0.189 A 
HETATM    6  C6  UNL     1      51.134   8.600  97.954  1.00  0.00     0.180 C 
HETATM    7  O1  UNL     1      52.933  10.123  97.750  1.00  0.00    -0.349 OA
HETATM    8  C7  UNL     1      52.857  11.385  97.229  1.00  0.00     0.296 A 
HETATM    9  O2  UNL     1      53.896  12.215  97.677  1.00  0.00    -0.349 OA
HETATM   10  C8  UNL     1      53.617  13.533  97.423  1.00  0.00     0.183 C 
HETATM   11  C9  UNL     1      52.506  13.769  96.464  1.00  0.00     0.179 C 
HETATM   12  C10 UNL     1      52.454  12.813  95.316  1.00  0.00     0.187 C 
HETATM   13  C11 UNL     1      52.933  11.417  95.714  1.00  0.00     0.303 C 
HETATM   14 CL1  UNL     1      52.340  11.441  97.776  1.00  0.00    -0.145 Cl
HETATM   15 CL2  UNL     1      52.338  11.438  97.778  1.00  0.00    -0.145 Cl
HETATM   16 CL3  UNL     1      52.341  11.445  97.774  1.00  0.00    -0.145 Cl
HETATM   17 CL4  UNL     1      52.339  11.440  97.777  1.00  0.00    -0.145 Cl
HETATM   18  H27 UNL     1      51.939  10.293  98.417  1.00  0.00     0.145 HD
HETATM   19  H28 UNL     1      51.940  10.296  98.414  1.00  0.00     0.145 HD
HETATM   20  H29 UNL     1      51.938  10.289  98.418  1.00  0.00     0.145 HD
HETATM   21  H30 UNL     1      51.939  10.293  98.415  1.00  0.00     0.145 HD
ENDROOT
BRANCH   4  22
HETATM   22  N2  UNL     1      51.245  10.041 100.830  1.00  0.00     0.085 N 
HETATM   23  H17 UNL     1      50.410  10.339 100.265  1.00  0.00     0.313 HD
HETATM   24  H18 UNL     1      50.912   9.192 101.377  1.00  0.00     0.313 HD
ENDBRANCH   4  22
BRANCH   6  25
HETATM   25  O3  UNL     1      49.993   9.036  97.242  1.00  0.00    -0.390 OA
HETATM   26  H13 UNL     1      50.184   8.990  96.260  1.00  0.00     0.210 HD
ENDBRANCH   6  25
BRANCH   1  27
HETATM   27  O4  UNL     1      50.630   6.303  98.227  1.00  0.00    -0.391 OA
HETATM   28  H14 UNL     1      50.735   6.404  97.259  1.00  0.00     0.210 HD
ENDBRANCH   1  27
BRANCH   2  29
HETATM   29  N1  UNL     1      50.771   7.617 101.328  1.00  0.00     0.085 N 
HETATM   30  H15 UNL     1      50.579   8.632 101.444  1.00  0.00     0.313 HD
HETATM   31  H16 UNL     1      49.922   7.020 101.392  1.00  0.00     0.313 HD
ENDBRANCH   2  29
BRANCH  13  32
HETATM   32  N4  UNL     1      54.300  11.302  95.263  1.00  0.00     0.090 N 
HETATM   33  H25 UNL     1      54.959  11.507  96.046  1.00  0.00     0.313 HD
HETATM   34  H26 UNL     1      54.483  10.369  94.821  1.00  0.00     0.313 HD
ENDBRANCH  13  32
BRANCH  10  35
HETATM   35  C12 UNL     1      53.231  14.169  98.763  1.00  0.00     0.301 C 
BRANCH  35  36
HETATM   36  N3  UNL     1      51.992  14.917  98.635  1.00  0.00     0.080 N 
HETATM   37  H21 UNL     1      51.239  14.255  98.308  1.00  0.00     0.312 HD
HETATM   38  H22 UNL     1      51.718  15.193  99.605  1.00  0.00     0.312 HD
ENDBRANCH  35  36
ENDBRANCH  10  35
BRANCH  12  39
HETATM   39  O6  UNL     1      51.093  12.656  94.973  1.00  0.00    -0.391 OA
HETATM   40  H24 UNL     1      50.648  12.001  95.592  1.00  0.00     0.210 HD
ENDBRANCH  12  39
BRANCH  11  41
HETATM   41  O5  UNL     1      52.658  15.062  95.914  1.00  0.00    -0.390 OA
HETATM   42  H23 UNL     1      52.054  15.664  96.452  1.00  0.00     0.210 HD
ENDBRANCH  11  41
TORSDOF 9
ENDMDL
