MODEL 1
REMARK VINA RESULT:      -6.9      0.000      0.000
REMARK  9 active torsions:
REMARK  status: ('A' for Active; 'I' for Inactive)
REMARK    1  A    between atoms: N1_2  and  C14_18 
REMARK    2  A    between atoms: C2_3  and  C9_11 
REMARK    3  A    between atoms: C3_4  and  S1_10 
REMARK    4  A    between atoms: C6_7  and  C19_23 
REMARK    5  A    between atoms: S1_10  and  C15_19 
REMARK    6  A    between atoms: C9_11  and  C10_12 
REMARK    7  A    between atoms: C10_12  and  C11_13 
REMARK    8  A    between atoms: C11_13  and  O1_14 
REMARK    9  A    between atoms: C14_18  and  C22_26 
ROOT
HETATM    1  C1  UNL     1      45.548  -3.380 103.143  1.00  0.00     0.046 A 
HETATM    2  N1  UNL     1      45.178  -4.706 102.961  1.00  0.00    -0.344 N 
HETATM    3  C2  UNL     1      44.796  -4.919 101.643  1.00  0.00     0.031 C 
HETATM    4  C3  UNL     1      45.176  -3.783 100.947  1.00  0.00     0.036 C 
HETATM    5  C4  UNL     1      45.558  -2.782 101.883  1.00  0.00     0.010 A 
HETATM    6  C5  UNL     1      45.932  -1.422 101.780  1.00  0.00     0.022 A 
HETATM    7  C6  UNL     1      46.291  -0.685 102.920  1.00  0.00    -0.054 A 
HETATM    8  C7  UNL     1      46.272  -1.319 104.166  1.00  0.00     0.010 A 
HETATM    9  C8  UNL     1      45.906  -2.665 104.298  1.00  0.00     0.031 A 
ENDROOT
BRANCH   2  10
HETATM   10  C14 UNL     1      45.220  -5.715 104.021  1.00  0.00     0.167 C 
BRANCH  10  11
HETATM   11  C22 UNL     1      46.620  -6.232 104.276  1.00  0.00    -0.040 A 
HETATM   12  C23 UNL     1      47.123  -6.264 105.587  1.00  0.00     0.010 A 
HETATM   13  C24 UNL     1      48.418  -6.722 105.843  1.00  0.00     0.024 A 
HETATM   14  C25 UNL     1      49.224  -7.143 104.788  1.00  0.00     0.034 A 
HETATM   15  C26 UNL     1      48.748  -7.106 103.481  1.00  0.00     0.024 A 
HETATM   16 CL1  UNL     1      50.818  -7.708 105.102  1.00  0.00    -0.084 Cl
HETATM   17  C27 UNL     1      47.453  -6.647 103.225  1.00  0.00     0.010 A 
ENDBRANCH  10  11
ENDBRANCH   2  10
BRANCH   3  18
HETATM   18  C9  UNL     1      44.180  -6.203 101.142  1.00  0.00     0.078 C 
BRANCH  18  19
HETATM   19  C10 UNL     1      42.682  -6.129 100.750  1.00  0.00     0.043 C 
HETATM   20  C12 UNL     1      42.442  -5.579  99.334  1.00  0.00     0.026 C 
HETATM   21  C13 UNL     1      41.984  -7.497 100.851  1.00  0.00     0.026 C 
BRANCH  19  22
HETATM   22  C11 UNL     1      42.020  -5.190 101.756  1.00  0.00     0.148 C 
HETATM   23  O2  UNL     1      41.668  -5.457 102.893  1.00  0.00    -0.649 OA
BRANCH  22  24
HETATM   24  O1  UNL     1      41.855  -3.933 101.292  1.00  0.00    -0.776 OA
HETATM   25  H6  UNL     1      41.979  -4.031 100.324  1.00  0.00     0.167 HD
ENDBRANCH  22  24
ENDBRANCH  19  22
ENDBRANCH  18  19
ENDBRANCH   3  18
BRANCH   4  26
HETATM   26  S1  UNL     1      45.119  -3.545  99.212  1.00  0.00    -0.118 SA
BRANCH  26  27
HETATM   27  C15 UNL     1      46.705  -4.284  98.621  1.00  0.00     0.002 C 
HETATM   28  C16 UNL     1      47.140  -3.440  97.411  1.00  0.00     0.026 C 
HETATM   29  C17 UNL     1      46.511  -5.736  98.169  1.00  0.00     0.026 C 
HETATM   30  C18 UNL     1      47.796  -4.206  99.695  1.00  0.00     0.026 C 
ENDBRANCH  26  27
ENDBRANCH   4  26
BRANCH   7  31
HETATM   31  C19 UNL     1      46.696   0.775 102.822  1.00  0.00     0.010 C 
HETATM   32  C20 UNL     1      47.415   1.072 101.503  1.00  0.00     0.015 C 
HETATM   33  C21 UNL     1      47.555   1.200 104.017  1.00  0.00     0.015 C 
ENDBRANCH   7  31
TORSDOF 9
ENDMDL
