MODEL 1
REMARK VINA RESULT:      -7.4      0.000      0.000
REMARK  5 active torsions:
REMARK  status: ('A' for Active; 'I' for Inactive)
REMARK    1  A    between atoms: C2_2  and  C6_10 
REMARK    2  A    between atoms: C4_5  and  N5_11 
REMARK    3  A    between atoms: N5_11  and  C7_12 
REMARK    4  A    between atoms: C7_12  and  C14_23 
REMARK    5  A    between atoms: C10_15  and  S1_18 
ROOT
HETATM    1  C1  UNL     1      49.110   1.457 104.314  1.00  0.00     0.136 A 
HETATM    2  C2  UNL     1      48.714   2.137 103.215  1.00  0.00     0.040 A 
HETATM    3  C3  UNL     1      49.061   3.516 103.176  1.00  0.00     0.172 A 
HETATM    4  N1  UNL     1      49.742   4.021 104.256  1.00  0.00    -0.261 N 
HETATM    5  C4  UNL     1      50.071   3.258 105.380  1.00  0.00     0.189 A 
HETATM    6  N2  UNL     1      49.776   1.987 105.406  1.00  0.00    -0.231 NA
HETATM    7  N3  UNL     1      48.879   4.478 102.294  1.00  0.00    -0.129 NA
HETATM    8  N4  UNL     1      49.483   5.620 102.779  1.00  0.00    -0.143 NA
HETATM    9  C5  UNL     1      50.014   5.321 103.944  1.00  0.00     0.243 A 
ENDROOT
BRANCH   2  10
HETATM   10  C6  UNL     1      48.011   1.419 102.127  1.00  0.00    -0.021 A 
HETATM   11  C8  UNL     1      46.846   0.673 102.377  1.00  0.00     0.014 A 
HETATM   12  C9  UNL     1      46.182   0.013 101.338  1.00  0.00     0.024 A 
HETATM   13  C10 UNL     1      46.675   0.113 100.035  1.00  0.00     0.058 A 
HETATM   14  C11 UNL     1      47.834   0.842  99.766  1.00  0.00     0.024 A 
HETATM   15  C12 UNL     1      48.491   1.499 100.808  1.00  0.00     0.014 A 
BRANCH  13  16
HETATM   16  S1  UNL     1      45.839  -0.723  98.709  1.00  0.00     0.171 S 
HETATM   17  C13 UNL     1      45.524  -2.335  99.382  1.00  0.00     0.167 C 
HETATM   18  O1  UNL     1      44.567  -0.057  98.507  1.00  0.00    -0.223 OA
HETATM   19  O2  UNL     1      46.785  -0.867  97.617  1.00  0.00    -0.223 OA
ENDBRANCH  13  16
ENDBRANCH   2  10
BRANCH   5  20
HETATM   20  N5  UNL     1      50.726   3.825 106.450  1.00  0.00    -0.256 NA
HETATM   21  H3  UNL     1      50.804   4.828 106.265  1.00  0.00     0.131 HD
BRANCH  20  22
HETATM   22  C7  UNL     1      52.071   3.358 106.793  1.00  0.00     0.160 C 
BRANCH  22  23
HETATM   23  C14 UNL     1      52.100   2.527 108.026  1.00  0.00     0.065 A 
HETATM   24  O3  UNL     1      52.552   3.133 109.161  1.00  0.00    -0.326 OA
HETATM   25  C17 UNL     1      52.487   2.212 110.156  1.00  0.00     0.142 A 
HETATM   26  C16 UNL     1      51.993   1.020 109.677  1.00  0.00     0.027 A 
HETATM   27  C15 UNL     1      51.740   1.222 108.297  1.00  0.00     0.036 A 
ENDBRANCH  22  23
ENDBRANCH  20  22
ENDBRANCH   5  20
TORSDOF 5
ENDMDL
