MODEL 1
REMARK VINA RESULT:      -7.3      0.000      0.000
REMARK  9 active torsions:
REMARK  status: ('A' for Active; 'I' for Inactive)
REMARK    1  A    between atoms: C5_5  and  C7_7 
REMARK    2  A    between atoms: C7_7  and  N1_8 
REMARK    3  A    between atoms: N1_8  and  C8_9 
REMARK    4  A    between atoms: N1_8  and  C19_22 
REMARK    5  A    between atoms: C8_9  and  C9_10 
REMARK    6  A    between atoms: C9_10  and  C10_11 
REMARK    7  A    between atoms: C9_10  and  O2_27 
REMARK    8  A    between atoms: C10_11  and  O1_12 
REMARK    9  A    between atoms: O1_12  and  C11_13 
ROOT
HETATM    1  C9  UNL     1      47.450   1.708 104.159  1.00  0.00     0.160 C 
ENDROOT
BRANCH   1   2
HETATM    2  C8  UNL     1      47.159   1.700 102.638  1.00  0.00     0.151 C 
BRANCH   2   3
HETATM    3  N1  UNL     1      48.048   2.447 101.722  1.00  0.00    -0.398 N 
BRANCH   3   4
HETATM    4  C7  UNL     1      47.717   3.883 101.625  1.00  0.00     0.156 C 
BRANCH   4   5
HETATM    5  C5  UNL     1      48.893   4.810 101.872  1.00  0.00    -0.041 A 
HETATM    6  C4  UNL     1      49.638   5.314 100.797  1.00  0.00     0.009 A 
HETATM    7  C3  UNL     1      50.733   6.154 101.022  1.00  0.00     0.007 A 
HETATM    8  C2  UNL     1      51.101   6.507 102.324  1.00  0.00    -0.062 A 
HETATM    9  C1  UNL     1      50.377   5.982 103.401  1.00  0.00     0.007 A 
HETATM   10  C21 UNL     1      52.297   7.379 102.566  1.00  0.00     0.048 C 
HETATM   11  C6  UNL     1      49.284   5.142 103.177  1.00  0.00     0.009 A 
ENDBRANCH   4   5
ENDBRANCH   3   4
BRANCH   3  12
HETATM   12  C19 UNL     1      48.391   1.805 100.422  1.00  0.00     0.017 C 
HETATM   13  C20 UNL     1      47.933   2.603  99.181  1.00  0.00     0.037 C 
HETATM   14  C22 UNL     1      47.845   0.361 100.287  1.00  0.00     0.037 C 
HETATM   15  C23 UNL     1      49.935   1.674 100.366  1.00  0.00     0.037 C 
ENDBRANCH   3  12
ENDBRANCH   2   3
ENDBRANCH   1   2
BRANCH   1  16
HETATM   16  C10 UNL     1      48.973   1.680 104.395  1.00  0.00     0.209 C 
BRANCH  16  17
HETATM   17  O1  UNL     1      49.292   2.566 105.470  1.00  0.00    -0.348 OA
BRANCH  17  18
HETATM   18  C11 UNL     1      50.120   2.093 106.452  1.00  0.00     0.081 A 
HETATM   19  C12 UNL     1      50.018   0.828 107.052  1.00  0.00     0.038 A 
HETATM   20  C13 UNL     1      50.905   0.428 108.054  1.00  0.00     0.005 A 
HETATM   21  C14 UNL     1      51.924   1.272 108.498  1.00  0.00     0.030 A 
HETATM   22  C15 UNL     1      52.018   2.532 107.903  1.00  0.00     0.045 A 
HETATM   23  C16 UNL     1      51.145   2.959 106.898  1.00  0.00     0.025 A 
HETATM   24  N2  UNL     1      52.905   3.560 108.137  1.00  0.00    -0.365 N 
HETATM   25  C18 UNL     1      51.547   4.279 106.541  1.00  0.00     0.033 A 
HETATM   26  C17 UNL     1      52.629   4.622 107.318  1.00  0.00     0.089 A 
HETATM   27  H15 UNL     1      53.651   3.529 108.817  1.00  0.00     0.165 HD
ENDBRANCH  17  18
ENDBRANCH  16  17
ENDBRANCH   1  16
BRANCH   1  28
HETATM   28  O2  UNL     1      46.892   2.875 104.781  1.00  0.00    -0.392 OA
HETATM   29  H30 UNL     1      47.377   3.025 105.612  1.00  0.00     0.210 HD
ENDBRANCH   1  28
TORSDOF 9
ENDMDL
