MODEL 1
REMARK VINA RESULT:      -6.8      0.000      0.000
REMARK  6 active torsions:
REMARK  status: ('A' for Active; 'I' for Inactive)
REMARK    1  A    between atoms: C7_7  and  O2_19 
REMARK    2  A    between atoms: C14_14  and  O3_21 
REMARK    3  A    between atoms: C17_17  and  C20_23 
REMARK    4  A    between atoms: C17_17  and  O6_27 
REMARK    5  A    between atoms: C20_23  and  C21_24 
REMARK    6  A    between atoms: C21_24  and  O5_26 
ROOT
HETATM    1  C1  UNL     1      55.052  14.821  96.484  1.00  0.00     0.052 A 
HETATM    2  C2  UNL     1      54.300  15.380  95.348  1.00  0.00     0.172 A 
HETATM    3  C3  UNL     1      52.856  15.084  95.282  1.00  0.00     0.061 A 
HETATM    4  C4  UNL     1      52.221  14.383  96.240  1.00  0.00    -0.032 A 
HETATM    5  C5  UNL     1      52.927  13.838  97.498  1.00  0.00     0.039 A 
HETATM    6  C6  UNL     1      54.430  14.122  97.444  1.00  0.00    -0.006 A 
HETATM    7  C7  UNL     1      50.769  14.029  96.060  1.00  0.00     0.149 C 
HETATM    8  C8  UNL     1      50.544  12.523  96.167  1.00  0.00     0.044 C 
HETATM    9  C9  UNL     1      51.143  11.922  97.457  1.00  0.00     0.037 C 
HETATM   10  C10 UNL     1      52.662  12.277  97.574  1.00  0.00     0.147 C 
HETATM   11  C11 UNL     1      50.983  10.390  97.448  1.00  0.00     0.005 C 
HETATM   12  C12 UNL     1      51.511   9.691  98.724  1.00  0.00     0.001 C 
HETATM   13  C13 UNL     1      53.019  10.016  98.815  1.00  0.00     0.048 C 
HETATM   14  C14 UNL     1      53.348  11.527  98.761  1.00  0.00     0.160 C 
HETATM   15  C15 UNL     1      49.585   9.808  97.261  1.00  0.00     0.013 C 
HETATM   16  C16 UNL     1      49.692   8.353  97.780  1.00  0.00     0.025 C 
HETATM   17  C17 UNL     1      51.135   8.204  98.387  1.00  0.00     0.131 C 
HETATM   18  O1  UNL     1      54.852  16.053  94.486  1.00  0.00    -0.289 OA
HETATM   19  C18 UNL     1      52.414  14.619  98.732  1.00  0.00     0.028 C 
HETATM   20  C19 UNL     1      50.776  10.132 100.018  1.00  0.00     0.019 C 
HETATM   21  C22 UNL     1      49.357   7.333  96.692  1.00  0.00     0.013 C 
HETATM   22  F1  UNL     1      53.248  11.740  96.434  1.00  0.00    -0.238 F 
ENDROOT
BRANCH  17  23
HETATM   23  C20 UNL     1      51.130   7.243  99.610  1.00  0.00     0.185 C 
HETATM   24  O4  UNL     1      50.153   6.554  99.916  1.00  0.00    -0.292 OA
BRANCH  23  25
HETATM   25  C21 UNL     1      52.373   7.225 100.497  1.00  0.00     0.245 C 
BRANCH  25  26
HETATM   26  O5  UNL     1      53.543   6.795  99.821  1.00  0.00    -0.393 OA
HETATM   27  H25 UNL     1      53.744   7.479  99.151  1.00  0.00     0.209 HD
ENDBRANCH  25  26
ENDBRANCH  23  25
ENDBRANCH  17  23
BRANCH  17  28
HETATM   28  O6  UNL     1      51.991   7.693  97.363  1.00  0.00    -0.381 OA
HETATM   29  H26 UNL     1      52.248   6.781  97.608  1.00  0.00     0.211 HD
ENDBRANCH  17  28
BRANCH  14  30
HETATM   30  O3  UNL     1      53.136  12.096 100.049  1.00  0.00    -0.392 OA
HETATM   31  H19 UNL     1      53.601  11.578 100.723  1.00  0.00     0.210 HD
ENDBRANCH  14  30
BRANCH   7  32
HETATM   32  O2  UNL     1      50.009  14.692  97.061  1.00  0.00    -0.391 OA
HETATM   33  H15 UNL     1      49.697  14.012  97.683  1.00  0.00     0.210 HD
ENDBRANCH   7  32
TORSDOF 6
ENDMDL
