MODEL 1
REMARK VINA RESULT:      -7.9      0.000      0.000
REMARK  6 active torsions:
REMARK  status: ('A' for Active; 'I' for Inactive)
REMARK    1  A    between atoms: C4_4  and  N1_9 
REMARK       I    between atoms: N1_9  and  C7_10 
REMARK    2  A    between atoms: C7_10  and  C8_12 
REMARK    3  A    between atoms: C11_15  and  O2_18 
REMARK    4  A    between atoms: O2_18  and  C14_19 
REMARK    5  A    between atoms: C14_19  and  C15_20 
REMARK    6  A    between atoms: C15_20  and  C16_21 
ROOT
HETATM    1  N1  UNL     1      52.126   3.200 106.520  1.00  0.00    -0.320 N 
HETATM    2  C7  UNL     1      52.004   2.634 107.775  1.00  0.00     0.256 C 
HETATM    3  O1  UNL     1      52.465   3.078 108.820  1.00  0.00    -0.267 OA
HETATM    4  H4  UNL     1      51.808   2.660 105.723  1.00  0.00     0.169 HD
ENDROOT
BRANCH   2   5
HETATM    5  C8  UNL     1      51.270   1.338 107.816  1.00  0.00     0.032 A 
HETATM    6  C9  UNL     1      51.045   0.648 109.014  1.00  0.00     0.020 A 
HETATM    7  C10 UNL     1      50.352  -0.566 108.997  1.00  0.00     0.038 A 
HETATM    8  C11 UNL     1      49.887  -1.109 107.794  1.00  0.00     0.068 A 
HETATM    9  C12 UNL     1      50.128  -0.431 106.599  1.00  0.00     0.038 A 
HETATM   10  C13 UNL     1      50.821   0.786 106.610  1.00  0.00     0.020 A 
BRANCH   8  11
HETATM   11  O2  UNL     1      49.226  -2.298 107.926  1.00  0.00    -0.351 OA
BRANCH  11  12
HETATM   12  C14 UNL     1      48.651  -2.860 106.744  1.00  0.00     0.175 C 
BRANCH  12  13
HETATM   13  C15 UNL     1      47.168  -2.497 106.731  1.00  0.00     0.026 C 
BRANCH  13  14
HETATM   14  C16 UNL     1      46.358  -3.265 105.689  1.00  0.00    -0.002 C 
HETATM   15  C17 UNL     1      46.078  -2.462 104.428  1.00  0.00     0.005 C 
ENDBRANCH  13  14
ENDBRANCH  12  13
ENDBRANCH  11  12
ENDBRANCH   8  11
ENDBRANCH   2   5
BRANCH   1  16
HETATM   16  C4  UNL     1      52.739   4.428 106.188  1.00  0.00     0.074 A 
HETATM   17  C3  UNL     1      54.141   4.450 106.144  1.00  0.00     0.146 A 
HETATM   18  C2  UNL     1      54.848   5.603 105.825  1.00  0.00     0.086 A 
HETATM   19  F2  UNL     1      54.825   3.325 106.417  1.00  0.00    -0.204 F 
HETATM   20  C1  UNL     1      54.138   6.758 105.541  1.00  0.00     0.119 A 
HETATM   21  C6  UNL     1      52.747   6.770 105.572  1.00  0.00     0.044 A 
HETATM   22  F1  UNL     1      54.800   7.880 105.232  1.00  0.00    -0.206 F 
HETATM   23  C5  UNL     1      52.045   5.603 105.896  1.00  0.00     0.036 A 
ENDBRANCH   1  16
TORSDOF 6
ENDMDL
