MODEL 1
REMARK VINA RESULT:      -6.2      0.000      0.000
REMARK  4 active torsions:
REMARK  status: ('A' for Active; 'I' for Inactive)
REMARK    1  A    between atoms: C5_8  and  S1_9 
REMARK    2  A    between atoms: S1_9  and  C6_10 
REMARK    3  A    between atoms: C11_18  and  O1_19 
REMARK    4  A    between atoms: C12_20  and  O2_21 
ROOT
HETATM    1  S1  UNL     1      45.304  -6.181 105.232  1.00  0.00     0.215 S 
HETATM    2  O3  UNL     1      44.576  -7.251 104.575  1.00  0.00    -0.217 OA
HETATM    3  O4  UNL     1      44.804  -5.635 106.486  1.00  0.00    -0.217 OA
ENDROOT
BRANCH   1   4
HETATM    4  C5  UNL     1      46.946  -6.733 105.604  1.00  0.00     0.122 A 
HETATM    5  C4  UNL     1      47.753  -7.299 104.600  1.00  0.00     0.080 A 
HETATM    6  C3  UNL     1      49.076  -7.672 104.913  1.00  0.00     0.059 A 
HETATM    7 CL3  UNL     1      47.153  -7.632 103.005  1.00  0.00    -0.081 Cl
HETATM    8  C2  UNL     1      49.577  -7.514 106.206  1.00  0.00     0.052 A 
HETATM    9 CL2  UNL     1      50.156  -8.358 103.746  1.00  0.00    -0.082 Cl
HETATM   10  C1  UNL     1      48.757  -7.001 107.200  1.00  0.00     0.070 A 
HETATM   11 CL1  UNL     1      49.375  -6.846 108.803  1.00  0.00    -0.081 Cl
HETATM   12  C12 UNL     1      47.443  -6.618 106.910  1.00  0.00     0.111 A 
BRANCH  12  13
HETATM   13  O2  UNL     1      46.645  -6.157 107.921  1.00  0.00    -0.357 OA
HETATM   14  H4  UNL     1      46.672  -6.804 108.656  1.00  0.00     0.217 HD
ENDBRANCH  12  13
ENDBRANCH   1   4
BRANCH   1  15
HETATM   15  C6  UNL     1      45.268  -4.852 104.053  1.00  0.00     0.122 A 
HETATM   16  C7  UNL     1      45.795  -3.594 104.403  1.00  0.00     0.080 A 
HETATM   17 CL4  UNL     1      46.439  -3.264 105.984  1.00  0.00    -0.081 Cl
HETATM   18  C8  UNL     1      45.781  -2.559 103.449  1.00  0.00     0.059 A 
HETATM   19 CL5  UNL     1      46.387  -0.972 103.784  1.00  0.00    -0.082 Cl
HETATM   20  C9  UNL     1      45.257  -2.773 102.174  1.00  0.00     0.052 A 
HETATM   21  C10 UNL     1      44.739  -4.020 101.838  1.00  0.00     0.070 A 
HETATM   22 CL6  UNL     1      44.097  -4.222 100.246  1.00  0.00    -0.081 Cl
HETATM   23  C11 UNL     1      44.741  -5.069 102.767  1.00  0.00     0.111 A 
BRANCH  23  24
HETATM   24  O1  UNL     1      44.212  -6.260 102.344  1.00  0.00    -0.357 OA
HETATM   25  H3  UNL     1      43.252  -6.194 102.149  1.00  0.00     0.217 HD
ENDBRANCH  23  24
ENDBRANCH   1  15
TORSDOF 4
ENDMDL
