MODEL 1
REMARK VINA RESULT:      -8.1      0.000      0.000
REMARK  6 active torsions:
REMARK  status: ('A' for Active; 'I' for Inactive)
REMARK    1  A    between atoms: C2_2  and  C3_3 
REMARK    2  A    between atoms: C6_6  and  C8_9 
REMARK    3  A    between atoms: C8_9  and  C9_10 
REMARK    4  A    between atoms: C9_10  and  O1_11 
REMARK    5  A    between atoms: C13_15  and  C16_18 
REMARK    6  A    between atoms: C16_18  and  C17_19 
ROOT
HETATM    1  O1  UNL     1      48.899   3.944 101.965  1.00  0.00    -0.351 OA
HETATM    2  C10 UNL     1      49.563   4.916 101.228  1.00  0.00     0.068 A 
HETATM    3  C11 UNL     1      50.256   5.931 101.865  1.00  0.00     0.037 A 
HETATM    4  C12 UNL     1      50.916   6.896 101.129  1.00  0.00     0.010 A 
HETATM    5  C13 UNL     1      50.849   6.799  99.754  1.00  0.00    -0.056 A 
HETATM    6  C14 UNL     1      50.158   5.787  99.125  1.00  0.00     0.010 A 
HETATM    7  C15 UNL     1      49.498   4.823  99.853  1.00  0.00     0.037 A 
HETATM    8 CL1  UNL     1      47.863   4.494 101.507  1.00  0.00    -0.145 Cl
HETATM    9  H21 UNL     1      48.889   5.143 100.866  1.00  0.00     0.145 HD
ENDROOT
BRANCH   1  10
HETATM   10  C9  UNL     1      48.935   3.996 103.373  1.00  0.00     0.181 C 
BRANCH  10  11
HETATM   11  C8  UNL     1      49.059   2.616 103.956  1.00  0.00     0.086 C 
BRANCH  11  12
HETATM   12  C6  UNL     1      49.901   2.573 105.164  1.00  0.00     0.036 A 
HETATM   13  C5  UNL     1      49.890   1.470 105.996  1.00  0.00     0.028 A 
HETATM   14  C4  UNL     1      50.672   1.397 107.141  1.00  0.00     0.010 A 
HETATM   15  C3  UNL     1      51.495   2.456 107.474  1.00  0.00    -0.041 A 
HETATM   16  C7  UNL     1      51.490   3.545 106.627  1.00  0.00     0.124 A 
HETATM   17  N1  UNL     1      50.719   3.584 105.524  1.00  0.00    -0.265 NA
BRANCH  15  18
HETATM   18  C2  UNL     1      52.363   2.446 108.689  1.00  0.00     0.035 C 
HETATM   19  C1  UNL     1      52.047   1.244 109.525  1.00  0.00     0.010 C 
ENDBRANCH  15  18
ENDBRANCH  11  12
ENDBRANCH  10  11
ENDBRANCH   1  10
BRANCH   5  20
HETATM   20  C16 UNL     1      51.544   7.817  98.952  1.00  0.00     0.063 C 
BRANCH  20  21
HETATM   21  C17 UNL     1      51.473   9.165  99.627  1.00  0.00     0.153 C 
HETATM   22  S1  UNL     1      50.989  10.391  98.337  1.00  0.00    -0.054 SA
HETATM   23  C18 UNL     1      52.636  10.934  97.940  1.00  0.00     0.287 C 
HETATM   24  N2  UNL     1      53.486  10.219  98.806  1.00  0.00    -0.287 N 
HETATM   25  O3  UNL     1      52.949  11.760  97.083  1.00  0.00    -0.260 OA
HETATM   26  C19 UNL     1      52.845   9.668  99.920  1.00  0.00     0.239 C 
HETATM   27  H20 UNL     1      54.533  10.094  98.648  1.00  0.00     0.172 HD
HETATM   28  O2  UNL     1      53.316   9.565 101.106  1.00  0.00    -0.272 OA
ENDBRANCH  20  21
ENDBRANCH   5  20
TORSDOF 6
ENDMDL
