MODEL 1
REMARK VINA RESULT:      -9.1      0.000      0.000
REMARK  7 active torsions:
REMARK  status: ('A' for Active; 'I' for Inactive)
REMARK    1  A    between atoms: C1_1  and  C2_2 
REMARK    2  A    between atoms: C1_1  and  C3_3 
REMARK    3  A    between atoms: C1_1  and  O1_4 
REMARK       I    between atoms: C2_2  and  N1_7 
REMARK    4  A    between atoms: C3_3  and  S1_14 
REMARK    5  A    between atoms: N1_7  and  C5_8 
REMARK    6  A    between atoms: C7_10  and  C18_25 
REMARK    7  A    between atoms: S1_14  and  C11_15 
ROOT
HETATM    1  C5  UNL     1      51.593   7.127 101.773  1.00  0.00     0.035 A 
HETATM    2  C6  UNL     1      51.922   8.401 101.287  1.00  0.00     0.047 A 
HETATM    3  C7  UNL     1      51.617   8.787  99.965  1.00  0.00     0.070 A 
HETATM    4  C8  UNL     1      50.969   7.870  99.121  1.00  0.00     0.059 A 
HETATM    5  C9  UNL     1      50.642   6.598  99.604  1.00  0.00     0.026 A 
HETATM    6  C10 UNL     1      50.952   6.231 100.919  1.00  0.00     0.031 A 
HETATM    7  C17 UNL     1      50.630   8.202  97.765  1.00  0.00     0.100 C 
HETATM    8  N2  UNL     1      50.354   8.467  96.670  1.00  0.00    -0.191 NA
ENDROOT
BRANCH   3   9
HETATM    9  C18 UNL     1      51.982  10.167  99.475  1.00  0.00     0.419 C 
HETATM   10  F2  UNL     1      50.915  10.857  98.982  1.00  0.00    -0.166 F 
HETATM   11  F3  UNL     1      52.504  10.947 100.457  1.00  0.00    -0.166 F 
HETATM   12  F4  UNL     1      52.897  10.137  98.471  1.00  0.00    -0.166 F 
ENDBRANCH   3   9
BRANCH   1  13
HETATM   13  N1  UNL     1      51.944   6.838 103.109  1.00  0.00    -0.325 N 
HETATM   14  C2  UNL     1      51.131   6.297 104.092  1.00  0.00     0.257 C 
HETATM   15  O2  UNL     1      49.943   6.000 103.964  1.00  0.00    -0.270 OA
HETATM   16  H11 UNL     1      52.887   7.099 103.375  1.00  0.00     0.169 HD
BRANCH  14  17
HETATM   17  C1  UNL     1      51.817   6.061 105.468  1.00  0.00     0.148 C 
HETATM   18  C4  UNL     1      53.287   6.458 105.362  1.00  0.00     0.057 C 
BRANCH  17  19
HETATM   19  C3  UNL     1      51.519   4.629 105.895  1.00  0.00     0.193 C 
BRANCH  19  20
HETATM   20  S1  UNL     1      52.539   3.941 107.161  1.00  0.00     0.178 S 
HETATM   21  O3  UNL     1      53.806   3.597 106.540  1.00  0.00    -0.223 OA
HETATM   22  O4  UNL     1      52.528   4.855 108.289  1.00  0.00    -0.223 OA
BRANCH  20  23
HETATM   23  C11 UNL     1      51.798   2.410 107.666  1.00  0.00     0.059 A 
HETATM   24  C12 UNL     1      50.860   1.780 106.841  1.00  0.00     0.026 A 
HETATM   25  C13 UNL     1      50.269   0.588 107.262  1.00  0.00     0.044 A 
HETATM   26  C14 UNL     1      50.612   0.050 108.499  1.00  0.00     0.116 A 
HETATM   27  C15 UNL     1      51.529   0.686 109.332  1.00  0.00     0.044 A 
HETATM   28  F1  UNL     1      50.042  -1.093 108.901  1.00  0.00    -0.206 F 
HETATM   29  C16 UNL     1      52.124   1.877 108.919  1.00  0.00     0.026 A 
ENDBRANCH  20  23
ENDBRANCH  19  20
ENDBRANCH  17  19
BRANCH  17  30
HETATM   30  O1  UNL     1      51.198   6.947 106.414  1.00  0.00    -0.380 OA
HETATM   31  H7  UNL     1      51.817   7.037 107.171  1.00  0.00     0.211 HD
ENDBRANCH  17  30
ENDBRANCH  14  17
ENDBRANCH   1  13
TORSDOF 7
ENDMDL
