MODEL 1
REMARK VINA RESULT:      -6.9      0.000      0.000
REMARK  10 active torsions:
REMARK  status: ('A' for Active; 'I' for Inactive)
REMARK    1  A    between atoms: C2_2  and  O1_18 
REMARK    2  A    between atoms: C7_7  and  O2_19 
REMARK    3  A    between atoms: C8_8  and  O3_20 
REMARK    4  A    between atoms: C17_17  and  C20_23 
REMARK    5  A    between atoms: C20_23  and  C21_24 
REMARK    6  A    between atoms: C21_24  and  C22_25 
REMARK    7  A    between atoms: C22_25  and  C23_26 
REMARK       I    between atoms: C23_26  and  N1_27 
REMARK    8  A    between atoms: N1_27  and  C24_29 
REMARK    9  A    between atoms: C24_29  and  C25_30 
REMARK   10  A    between atoms: C25_30  and  O5_32 
ROOT
HETATM    1  C1  UNL     1      48.683   4.406  94.735  1.00  0.00     0.032 C 
HETATM    2  C2  UNL     1      50.054   5.011  94.445  1.00  0.00     0.118 C 
HETATM    3  C3  UNL     1      50.425   6.076  95.464  1.00  0.00     0.039 C 
HETATM    4  C4  UNL     1      50.483   5.537  96.915  1.00  0.00     0.028 C 
HETATM    5  C5  UNL     1      49.375   4.461  97.234  1.00  0.00    -0.034 C 
HETATM    6  C6  UNL     1      48.230   4.561  96.192  1.00  0.00     0.012 C 
HETATM    7  C7  UNL     1      50.477   6.724  97.885  1.00  0.00     0.152 C 
HETATM    8  C8  UNL     1      50.629   6.305  99.361  1.00  0.00     0.152 C 
HETATM    9  C9  UNL     1      49.912   4.977  99.722  1.00  0.00     0.026 C 
HETATM   10  C10 UNL     1      48.782   4.656  98.696  1.00  0.00     0.001 C 
HETATM   11  C11 UNL     1      49.378   4.945 101.162  1.00  0.00     0.001 C 
HETATM   12  C12 UNL     1      48.640   3.634 101.546  1.00  0.00    -0.036 C 
HETATM   13  C13 UNL     1      47.422   3.554 100.613  1.00  0.00     0.010 C 
HETATM   14  C14 UNL     1      47.845   3.499  99.140  1.00  0.00     0.007 C 
HETATM   15  C15 UNL     1      50.385   5.121 102.292  1.00  0.00     0.006 C 
HETATM   16  C16 UNL     1      49.638   4.626 103.535  1.00  0.00     0.006 C 
HETATM   17  C17 UNL     1      48.331   3.934 103.047  1.00  0.00    -0.002 C 
HETATM   18  C18 UNL     1      50.022   3.051  97.103  1.00  0.00     0.016 C 
HETATM   19  C19 UNL     1      49.517   2.366 101.412  1.00  0.00     0.016 C 
ENDROOT
BRANCH  17  20
HETATM   20  C20 UNL     1      47.904   2.771 103.994  1.00  0.00    -0.013 C 
HETATM   21  C26 UNL     1      46.645   3.112 104.797  1.00  0.00     0.010 C 
BRANCH  20  22
HETATM   22  C21 UNL     1      49.072   2.409 104.959  1.00  0.00     0.014 C 
BRANCH  22  23
HETATM   23  C22 UNL     1      49.395   0.915 105.067  1.00  0.00     0.103 C 
BRANCH  23  24
HETATM   24  C23 UNL     1      50.328   0.581 106.217  1.00  0.00     0.218 C 
HETATM   25  N1  UNL     1      50.756   1.698 106.905  1.00  0.00    -0.351 N 
HETATM   26  H37 UNL     1      50.193   2.537 106.817  1.00  0.00     0.163 HD
HETATM   27  O4  UNL     1      50.703  -0.554 106.486  1.00  0.00    -0.274 OA
BRANCH  25  28
HETATM   28  C24 UNL     1      51.509   1.552 108.140  1.00  0.00     0.232 C 
BRANCH  28  29
HETATM   29  C25 UNL     1      52.524   2.676 108.271  1.00  0.00     0.158 C 
HETATM   30  O6  UNL     1      53.260   3.098 107.391  1.00  0.00    -0.649 OA
BRANCH  29  31
HETATM   31  O5  UNL     1      52.609   3.161 109.526  1.00  0.00    -0.775 OA
HETATM   32  H43 UNL     1      52.348   4.102 109.437  1.00  0.00     0.167 HD
ENDBRANCH  29  31
ENDBRANCH  28  29
ENDBRANCH  25  28
ENDBRANCH  23  24
ENDBRANCH  22  23
ENDBRANCH  20  22
ENDBRANCH  17  20
BRANCH   8  33
HETATM   33  O3  UNL     1      50.138   7.414 100.131  1.00  0.00    -0.393 OA
HETATM   34  H25 UNL     1      50.724   7.518 100.901  1.00  0.00     0.210 HD
ENDBRANCH   8  33
BRANCH   7  35
HETATM   35  O2  UNL     1      49.269   7.483  97.725  1.00  0.00    -0.393 OA
HETATM   36  H24 UNL     1      49.500   8.173  97.066  1.00  0.00     0.210 HD
ENDBRANCH   7  35
BRANCH   2  37
HETATM   37  O1  UNL     1      50.038   5.563  93.131  1.00  0.00    -0.396 OA
HETATM   38  H23 UNL     1      49.937   4.829  92.502  1.00  0.00     0.210 HD
ENDBRANCH   2  37
TORSDOF 10
ENDMDL
