MODEL 1
REMARK VINA RESULT:      -8.5      0.000      0.000
REMARK  8 active torsions:
REMARK  status: ('A' for Active; 'I' for Inactive)
REMARK    1  A    between atoms: C2_2  and  C12_12 
REMARK    2  A    between atoms: C6_6  and  C7_7 
REMARK    3  A    between atoms: C7_7  and  C8_8 
REMARK    4  A    between atoms: C12_12  and  C13_13 
REMARK    5  A    between atoms: C17_17  and  C24_25 
REMARK    6  A    between atoms: C18_18  and  C19_20 
REMARK    7  A    between atoms: C19_20  and  C20_21 
REMARK    8  A    between atoms: C24_25  and  C25_26 
ROOT
HETATM    1  C1  UNL     1      47.364   2.146 102.389  1.00  0.00     0.017 A 
HETATM    2  C2  UNL     1      48.421   3.063 102.434  1.00  0.00    -0.053 A 
HETATM    3  C3  UNL     1      49.414   2.925 103.417  1.00  0.00     0.021 A 
HETATM    4  C4  UNL     1      49.338   1.880 104.362  1.00  0.00    -0.000 A 
HETATM    5  C5  UNL     1      48.272   0.992 104.275  1.00  0.00     0.050 A 
HETATM    6  C6  UNL     1      47.249   1.085 103.310  1.00  0.00    -0.027 A 
HETATM    7  C17 UNL     1      50.165   1.468 105.467  1.00  0.00    -0.019 A 
HETATM    8  C18 UNL     1      49.615   0.292 105.984  1.00  0.00     0.028 A 
HETATM    9  N1  UNL     1      48.449   0.074 105.280  1.00  0.00    -0.357 N 
HETATM   10  H21 UNL     1      47.799  -0.678 105.449  1.00  0.00     0.166 HD
ENDROOT
BRANCH   7  11
HETATM   11  C24 UNL     1      51.419   2.175 105.897  1.00  0.00     0.076 C 
BRANCH  11  12
HETATM   12  C25 UNL     1      51.198   3.334 106.890  1.00  0.00     0.181 C 
HETATM   13  C26 UNL     1      52.465   3.592 107.727  1.00  0.00     0.241 C 
HETATM   14  N2  UNL     1      53.448   4.316 107.085  1.00  0.00    -0.346 N 
HETATM   15  O1  UNL     1      52.691   3.077 108.816  1.00  0.00    -0.271 OA
HETATM   16  C27 UNL     1      53.075   5.483 106.293  1.00  0.00     0.172 C 
HETATM   17  H34 UNL     1      54.252   4.427 107.688  1.00  0.00     0.163 HD
HETATM   18  C28 UNL     1      51.761   5.295 105.506  1.00  0.00     0.240 C 
HETATM   19  C29 UNL     1      54.215   5.881 105.367  1.00  0.00     0.042 C 
HETATM   20  N3  UNL     1      50.806   4.551 106.164  1.00  0.00    -0.346 N 
HETATM   21  O2  UNL     1      51.470   5.908 104.486  1.00  0.00    -0.271 OA
HETATM   22  H36 UNL     1      49.936   4.502 105.647  1.00  0.00     0.163 HD
ENDBRANCH  11  12
ENDBRANCH   7  11
BRANCH   8  23
HETATM   23  C19 UNL     1      50.080  -0.682 107.076  1.00  0.00     0.012 C 
HETATM   24  C22 UNL     1      49.221  -1.975 107.097  1.00  0.00     0.026 C 
HETATM   25  C23 UNL     1      51.520  -1.143 106.738  1.00  0.00     0.026 C 
BRANCH  23  26
HETATM   26  C20 UNL     1      50.093  -0.041 108.463  1.00  0.00    -0.022 C 
HETATM   27  C21 UNL     1      51.166   0.251 109.213  1.00  0.00     0.008 C 
ENDBRANCH  23  26
ENDBRANCH   8  23
BRANCH   2  28
HETATM   28  C12 UNL     1      48.525   4.164 101.400  1.00  0.00     0.066 C 
BRANCH  28  29
HETATM   29  C13 UNL     1      49.808   4.943 101.539  1.00  0.00    -0.020 C 
HETATM   30  C14 UNL     1      50.500   5.587 100.577  1.00  0.00    -0.091 C 
HETATM   31  C15 UNL     1      50.127   5.638  99.121  1.00  0.00     0.042 C 
HETATM   32  C16 UNL     1      51.762   6.337 100.914  1.00  0.00     0.042 C 
ENDBRANCH  28  29
ENDBRANCH   2  28
BRANCH   6  33
HETATM   33  C7  UNL     1      46.114   0.091 103.179  1.00  0.00     0.068 C 
BRANCH  33  34
HETATM   34  C8  UNL     1      46.098  -0.620 101.851  1.00  0.00    -0.020 C 
HETATM   35  C9  UNL     1      45.864  -1.923 101.601  1.00  0.00    -0.091 C 
HETATM   36  C10 UNL     1      45.551  -2.970 102.637  1.00  0.00     0.042 C 
HETATM   37  C11 UNL     1      45.908  -2.449 100.190  1.00  0.00     0.042 C 
ENDBRANCH  33  34
ENDBRANCH   6  33
TORSDOF 8
ENDMDL
