MODEL 1
REMARK VINA RESULT:      -8.1      0.000      0.000
REMARK  7 active torsions:
REMARK  status: ('A' for Active; 'I' for Inactive)
REMARK    1  A    between atoms: C6_6  and  N1_7 
REMARK       I    between atoms: N1_7  and  C7_8 
REMARK    2  A    between atoms: N1_7  and  C8_9 
REMARK    3  A    between atoms: C7_8  and  C21_24 
REMARK    4  A    between atoms: N2_13  and  C13_16 
REMARK    5  A    between atoms: C11_14  and  C12_15 
REMARK    6  A    between atoms: C13_16  and  C14_17 
REMARK    7  A    between atoms: C14_17  and  C15_18 
ROOT
HETATM    1  C8  UNL     1      48.324   1.453 104.619  1.00  0.00     0.096 A 
HETATM    2  C9  UNL     1      48.884   2.768 105.032  1.00  0.00     0.056 A 
HETATM    3  C10 UNL     1      49.611   2.688 106.367  1.00  0.00     0.274 A 
HETATM    4  N2  UNL     1      50.680   1.749 106.358  1.00  0.00     0.088 N 
HETATM    5  C11 UNL     1      50.684   1.051 105.083  1.00  0.00     0.274 A 
HETATM    6  C12 UNL     1      49.347   0.386 104.882  1.00  0.00     0.056 A 
HETATM    7 CL1  UNL     1      50.009   1.519 105.442  1.00  0.00    -0.145 Cl
HETATM    8  H28 UNL     1      49.454   1.694 104.204  1.00  0.00     0.145 HD
ENDROOT
BRANCH   1   9
HETATM    9  N1  UNL     1      47.890   1.462 103.204  1.00  0.00    -0.313 N 
HETATM   10  C7  UNL     1      46.885   0.570 102.767  1.00  0.00     0.229 C 
HETATM   11  O1  UNL     1      46.514  -0.269 103.686  1.00  0.00    -0.273 OA
BRANCH   9  12
HETATM   12  C6  UNL     1      48.485   2.384 102.303  1.00  0.00     0.037 A 
HETATM   13  C1  UNL     1      47.935   3.632 102.065  1.00  0.00     0.033 A 
HETATM   14  C2  UNL     1      48.516   4.498 101.169  1.00  0.00     0.044 A 
HETATM   15  C3  UNL     1      49.656   4.107 100.507  1.00  0.00     0.116 A 
HETATM   16  C4  UNL     1      50.232   2.886 100.710  1.00  0.00     0.044 A 
HETATM   17  F1  UNL     1      50.214   4.988  99.619  1.00  0.00    -0.206 F 
HETATM   18  C5  UNL     1      49.645   2.014 101.615  1.00  0.00     0.033 A 
ENDBRANCH   9  12
BRANCH  10  19
HETATM   19  C21 UNL     1      46.216   0.436 101.493  1.00  0.00     0.078 A 
HETATM   20  C22 UNL     1      47.035  -0.337 100.442  1.00  0.00     0.015 A 
HETATM   21  C23 UNL     1      45.665  -0.759 100.874  1.00  0.00     0.015 A 
ENDBRANCH  10  19
ENDBRANCH   1   9
BRANCH   4  22
HETATM   22  C13 UNL     1      51.981   2.271 106.579  1.00  0.00     0.277 C 
BRANCH  22  23
HETATM   23  C14 UNL     1      52.020   3.591 107.290  1.00  0.00     0.068 C 
BRANCH  23  24
HETATM   24  C15 UNL     1      52.660   4.667 106.502  1.00  0.00    -0.057 A 
HETATM   25  C16 UNL     1      54.033   4.639 106.393  1.00  0.00     0.007 A 
HETATM   26  C17 UNL     1      54.714   5.599 105.680  1.00  0.00     0.001 A 
HETATM   27  C18 UNL     1      54.012   6.609 105.062  1.00  0.00     0.000 A 
HETATM   28  C19 UNL     1      52.638   6.639 105.169  1.00  0.00     0.001 A 
HETATM   29  C20 UNL     1      51.961   5.679 105.882  1.00  0.00     0.007 A 
ENDBRANCH  23  24
ENDBRANCH  22  23
ENDBRANCH   4  22
TORSDOF 7
ENDMDL
