MODEL 1
REMARK VINA RESULT:      -7.2      0.000      0.000
REMARK  2 active torsions:
REMARK  status: ('A' for Active; 'I' for Inactive)
REMARK    1  A    between atoms: C3_3  and  C10_12 
REMARK    2  A    between atoms: C8_10  and  N3_21 
ROOT
HETATM    1  C1  UNL     1      51.092   1.365 107.610  1.00  0.00     0.049 A 
HETATM    2  C2  UNL     1      50.850   1.836 106.301  1.00  0.00     0.022 A 
HETATM    3  C3  UNL     1      49.924   1.141 105.362  1.00  0.00     0.077 C 
HETATM    4  N1  UNL     1      49.899  -0.129 105.149  1.00  0.00    -0.279 NA
HETATM    5  C4  UNL     1      50.844  -0.961 105.886  1.00  0.00     0.252 C 
HETATM    6  C5  UNL     1      50.418  -1.031 107.344  1.00  0.00     0.243 C 
HETATM    7  N2  UNL     1      50.574   0.129 108.113  1.00  0.00    -0.320 N 
HETATM    8  C6  UNL     1      51.875   2.171 108.461  1.00  0.00     0.033 A 
HETATM    9  C7  UNL     1      52.434   3.377 108.027  1.00  0.00     0.038 A 
HETATM   10  C8  UNL     1      52.211   3.807 106.719  1.00  0.00     0.103 A 
HETATM   11  C9  UNL     1      51.422   3.044 105.855  1.00  0.00     0.052 A 
HETATM   12  O1  UNL     1      50.021  -2.095 107.827  1.00  0.00    -0.271 OA
HETATM   13  C16 UNL     1      50.335  -0.010 109.545  1.00  0.00     0.159 C 
ENDROOT
BRANCH   3  14
HETATM   14  C10 UNL     1      48.934   1.967 104.628  1.00  0.00     0.032 A 
HETATM   15  C11 UNL     1      47.820   2.478 105.303  1.00  0.00     0.017 A 
HETATM   16  C12 UNL     1      46.890   3.254 104.608  1.00  0.00     0.001 A 
HETATM   17  C13 UNL     1      47.072   3.513 103.247  1.00  0.00     0.003 A 
HETATM   18  C14 UNL     1      48.183   2.998 102.577  1.00  0.00     0.043 A 
HETATM   19  C15 UNL     1      49.109   2.224 103.269  1.00  0.00     0.129 A 
HETATM   20  F1  UNL     1      50.193   1.778 102.617  1.00  0.00    -0.205 F 
ENDBRANCH   3  14
BRANCH  10  21
HETATM   21  N3  UNL     1      52.799   5.068 106.253  1.00  0.00    -0.116 N 
HETATM   22  O2  UNL     1      54.035   5.160 106.251  1.00  0.00    -0.532 OA
HETATM   23  O3  UNL     1      52.024   5.963 105.886  1.00  0.00    -0.532 OA
ENDBRANCH  10  21
TORSDOF 2
ENDMDL
