MODEL 1
REMARK VINA RESULT:      -8.5      0.000      0.000
REMARK  6 active torsions:
REMARK  status: ('A' for Active; 'I' for Inactive)
REMARK    1  A    between atoms: C2_2  and  C13_15 
REMARK    2  A    between atoms: N2_4  and  C8_10 
REMARK    3  A    between atoms: C8_10  and  C9_11 
REMARK    4  A    between atoms: C9_11  and  C10_12 
REMARK    5  A    between atoms: C10_12  and  C11_13 
REMARK       I    between atoms: C13_15  and  N3_17 
REMARK    6  A    between atoms: N3_17  and  C14_18 
ROOT
HETATM    1  C1  UNL     1      50.567   1.969 106.848  1.00  0.00     0.028 A 
HETATM    2  C2  UNL     1      50.189   2.846 105.789  1.00  0.00     0.157 A 
HETATM    3  N1  UNL     1      50.986   3.935 105.747  1.00  0.00    -0.166 NA
HETATM    4  N2  UNL     1      51.839   3.760 106.778  1.00  0.00    -0.268 N 
HETATM    5  C3  UNL     1      51.651   2.587 107.467  1.00  0.00     0.065 A 
HETATM    6  C4  UNL     1      52.314   2.010 108.561  1.00  0.00     0.032 A 
HETATM    7  C5  UNL     1      51.846   0.778 109.031  1.00  0.00     0.002 A 
HETATM    8  C6  UNL     1      50.760   0.145 108.430  1.00  0.00     0.001 A 
HETATM    9  C7  UNL     1      50.112   0.730 107.338  1.00  0.00     0.016 A 
ENDROOT
BRANCH   2  10
HETATM   10  C13 UNL     1      49.094   2.665 104.821  1.00  0.00     0.273 C 
HETATM   11  O1  UNL     1      47.910   2.647 105.141  1.00  0.00    -0.266 OA
HETATM   12  N3  UNL     1      49.551   2.519 103.528  1.00  0.00    -0.346 N 
HETATM   13  H16 UNL     1      50.565   2.557 103.446  1.00  0.00     0.163 HD
BRANCH  12  14
HETATM   14  C14 UNL     1      48.731   2.323 102.338  1.00  0.00     0.034 C 
HETATM   15  C15 UNL     1      49.661   1.948 101.153  1.00  0.00     0.035 C 
HETATM   16  C16 UNL     1      48.852   1.727  99.866  1.00  0.00    -0.012 C 
HETATM   17  C17 UNL     1      47.844   0.590 100.092  1.00  0.00     0.009 C 
HETATM   18  C22 UNL     1      48.094   3.017  99.519  1.00  0.00     0.009 C 
HETATM   19  C18 UNL     1      46.895   0.951 101.246  1.00  0.00    -0.012 C 
HETATM   20  C19 UNL     1      47.715   1.169 102.529  1.00  0.00     0.035 C 
HETATM   21  C21 UNL     1      46.145   2.247 100.896  1.00  0.00     0.009 C 
HETATM   22  C23 UNL     1      47.146   3.393 100.669  1.00  0.00    -0.012 C 
HETATM   23  C20 UNL     1      47.964   3.613 101.954  1.00  0.00     0.035 C 
ENDBRANCH  12  14
ENDBRANCH   2  10
BRANCH   4  24
HETATM   24  C8  UNL     1      52.846   4.777 107.026  1.00  0.00     0.151 C 
BRANCH  24  25
HETATM   25  C9  UNL     1      54.132   4.583 106.217  1.00  0.00     0.022 C 
BRANCH  25  26
HETATM   26  C10 UNL     1      54.518   5.763 105.317  1.00  0.00     0.001 C 
BRANCH  26  27
HETATM   27  C11 UNL     1      53.459   6.856 105.167  1.00  0.00    -0.004 C 
HETATM   28  C12 UNL     1      52.639   6.740 103.892  1.00  0.00     0.005 C 
ENDBRANCH  26  27
ENDBRANCH  25  26
ENDBRANCH  24  25
ENDBRANCH   4  24
TORSDOF 6
ENDMDL
