MODEL 1
REMARK VINA RESULT:      -8.2      0.000      0.000
REMARK  6 active torsions:
REMARK  status: ('A' for Active; 'I' for Inactive)
REMARK    1  A    between atoms: C7_7  and  C14_15 
REMARK    2  A    between atoms: N1_9  and  C9_10 
REMARK    3  A    between atoms: C9_10  and  C10_11 
REMARK    4  A    between atoms: C10_11  and  C11_12 
REMARK    5  A    between atoms: C11_12  and  C12_13 
REMARK    6  A    between atoms: C14_15  and  C15_17 
ROOT
HETATM    1  C1  UNL     1      51.604   0.522 108.988  1.00  0.00     0.001 A 
HETATM    2  C2  UNL     1      50.869   0.574 107.801  1.00  0.00     0.014 A 
HETATM    3  C3  UNL     1      50.821   1.771 107.052  1.00  0.00     0.006 A 
HETATM    4  C4  UNL     1      51.522   2.883 107.530  1.00  0.00     0.045 A 
HETATM    5  C5  UNL     1      52.264   2.840 108.722  1.00  0.00     0.030 A 
HETATM    6  C6  UNL     1      52.291   1.642 109.441  1.00  0.00     0.002 A 
HETATM    7  C7  UNL     1      50.174   2.148 105.827  1.00  0.00     0.038 A 
HETATM    8  C8  UNL     1      50.518   3.471 105.599  1.00  0.00     0.107 A 
HETATM    9  N1  UNL     1      51.315   3.901 106.626  1.00  0.00    -0.355 N 
ENDROOT
BRANCH   7  10
HETATM   10  C14 UNL     1      49.328   1.305 104.983  1.00  0.00     0.167 C 
HETATM   11  O1  UNL     1      49.040   0.146 105.260  1.00  0.00    -0.292 OA
BRANCH  10  12
HETATM   12  C15 UNL     1      48.858   1.914 103.699  1.00  0.00     0.077 A 
HETATM   13  C16 UNL     1      47.635   1.393 102.942  1.00  0.00    -0.029 A 
HETATM   14  C17 UNL     1      47.601   2.780 103.602  1.00  0.00    -0.029 A 
HETATM   15  C18 UNL     1      47.757   1.281 101.437  1.00  0.00     0.016 C 
HETATM   16  C21 UNL     1      46.788   0.273 103.515  1.00  0.00     0.016 C 
HETATM   17  C19 UNL     1      46.727   2.999 104.819  1.00  0.00     0.016 C 
HETATM   18  C20 UNL     1      47.671   4.015 102.730  1.00  0.00     0.016 C 
ENDBRANCH  10  12
ENDBRANCH   7  10
BRANCH   9  19
HETATM   19  C9  UNL     1      51.832   5.258 106.741  1.00  0.00     0.128 C 
BRANCH  19  20
HETATM   20  C10 UNL     1      51.770   6.007 105.409  1.00  0.00     0.020 C 
BRANCH  20  21
HETATM   21  C11 UNL     1      53.154   6.327 104.839  1.00  0.00     0.001 C 
BRANCH  21  22
HETATM   22  C12 UNL     1      54.310   6.173 105.833  1.00  0.00    -0.004 C 
HETATM   23  C13 UNL     1      55.219   4.988 105.566  1.00  0.00     0.005 C 
ENDBRANCH  21  22
ENDBRANCH  20  21
ENDBRANCH  19  20
ENDBRANCH   9  19
TORSDOF 6
ENDMDL
