MODEL 1
REMARK VINA RESULT:      -7.9      0.000      0.000
REMARK  8 active torsions:
REMARK  status: ('A' for Active; 'I' for Inactive)
REMARK    1  A    between atoms: C1_1  and  C2_2 
REMARK       I    between atoms: C1_1  and  N1_4 
REMARK    2  A    between atoms: N1_4  and  C11_15 
REMARK    3  A    between atoms: N3_6  and  C9_13 
REMARK    4  A    between atoms: C9_13  and  C10_14 
REMARK    5  A    between atoms: C10_14  and  C16_22 
REMARK    6  A    between atoms: C11_15  and  C12_16 
REMARK    7  A    between atoms: C11_15  and  C13_17 
REMARK       I    between atoms: C13_17  and  N4_18 
REMARK    8  A    between atoms: C16_22  and  C17_23 
ROOT
HETATM    1  C2  UNL     1      50.916   2.092 106.030  1.00  0.00     0.157 A 
HETATM    2  N2  UNL     1      51.523   3.268 105.784  1.00  0.00    -0.166 NA
HETATM    3  N3  UNL     1      52.174   3.555 106.924  1.00  0.00    -0.268 N 
HETATM    4  C3  UNL     1      52.031   2.608 107.905  1.00  0.00     0.065 A 
HETATM    5  C4  UNL     1      51.189   1.642 107.359  1.00  0.00     0.028 A 
HETATM    6  C5  UNL     1      52.543   2.517 109.209  1.00  0.00     0.032 A 
HETATM    7  C6  UNL     1      52.168   1.410 109.976  1.00  0.00     0.002 A 
HETATM    8  C7  UNL     1      51.311   0.441 109.464  1.00  0.00     0.001 A 
HETATM    9  C8  UNL     1      50.810   0.545 108.161  1.00  0.00     0.016 A 
ENDROOT
BRANCH   1  10
HETATM   10  C1  UNL     1      50.103   1.435 104.994  1.00  0.00     0.273 C 
HETATM   11  O1  UNL     1      49.850   0.232 104.995  1.00  0.00    -0.266 OA
HETATM   12  N1  UNL     1      49.624   2.283 104.010  1.00  0.00    -0.342 N 
HETATM   13  H10 UNL     1      50.019   3.213 103.964  1.00  0.00     0.163 HD
BRANCH  12  14
HETATM   14  C11 UNL     1      49.023   1.747 102.793  1.00  0.00     0.184 C 
BRANCH  14  15
HETATM   15  C12 UNL     1      47.471   1.893 102.772  1.00  0.00    -0.022 C 
HETATM   16  C14 UNL     1      47.066   3.136 103.594  1.00  0.00     0.017 C 
HETATM   17  C15 UNL     1      46.907   2.049 101.347  1.00  0.00     0.017 C 
HETATM   18  C19 UNL     1      46.809   0.663 103.427  1.00  0.00     0.017 C 
ENDBRANCH  14  15
BRANCH  14  19
HETATM   19  C13 UNL     1      49.724   2.468 101.621  1.00  0.00     0.239 C 
HETATM   20  N4  UNL     1      50.058   1.689 100.550  1.00  0.00    -0.368 N 
HETATM   21  H18 UNL     1      50.623   2.148  99.845  1.00  0.00     0.159 HD
HETATM   22  H19 UNL     1      50.233   0.702 100.687  1.00  0.00     0.159 HD
HETATM   23  O2  UNL     1      49.960   3.675 101.612  1.00  0.00    -0.271 OA
ENDBRANCH  14  19
ENDBRANCH  12  14
ENDBRANCH   1  10
BRANCH   3  24
HETATM   24  C9  UNL     1      52.949   4.780 107.000  1.00  0.00     0.151 C 
BRANCH  24  25
HETATM   25  C10 UNL     1      54.221   4.760 106.147  1.00  0.00     0.022 C 
BRANCH  25  26
HETATM   26  C16 UNL     1      54.343   5.980 105.229  1.00  0.00     0.001 C 
BRANCH  26  27
HETATM   27  C17 UNL     1      53.034   6.761 105.085  1.00  0.00    -0.004 C 
HETATM   28  C18 UNL     1      52.506   6.807 103.660  1.00  0.00     0.005 C 
ENDBRANCH  26  27
ENDBRANCH  25  26
ENDBRANCH  24  25
ENDBRANCH   3  24
TORSDOF 8
ENDMDL
