MODEL 1
REMARK VINA RESULT:      -6.6      0.000      0.000
REMARK  1 active torsions:
REMARK  status: ('A' for Active; 'I' for Inactive)
REMARK    1  A    between atoms: C17_17  and  O2_23 
ROOT
HETATM    1  C1  UNL     1      45.576  -1.845 101.475  1.00  0.00     0.084 C 
HETATM    2  C2  UNL     1      46.738  -2.039 100.538  1.00  0.00     0.149 C 
HETATM    3  C3  UNL     1      47.344  -3.387 100.455  1.00  0.00     0.053 C 
HETATM    4  C4  UNL     1      46.962  -4.390 101.264  1.00  0.00    -0.068 C 
HETATM    5  C5  UNL     1      45.948  -4.224 102.404  1.00  0.00    -0.016 C 
HETATM    6  C6  UNL     1      45.742  -2.711 102.715  1.00  0.00     0.022 C 
HETATM    7  C7  UNL     1      47.523  -5.775 101.049  1.00  0.00     0.035 C 
HETATM    8  C8  UNL     1      48.065  -6.380 102.337  1.00  0.00     0.010 C 
HETATM    9  C9  UNL     1      46.999  -6.382 103.442  1.00  0.00    -0.004 C 
HETATM   10  C10 UNL     1      46.497  -4.928 103.705  1.00  0.00     0.002 C 
HETATM   11  C11 UNL     1      47.552  -6.965 104.748  1.00  0.00     0.002 C 
HETATM   12  C12 UNL     1      46.507  -7.004 105.884  1.00  0.00     0.003 C 
HETATM   13  C13 UNL     1      46.066  -5.558 106.175  1.00  0.00     0.014 C 
HETATM   14  C14 UNL     1      45.525  -4.859 104.914  1.00  0.00     0.007 C 
HETATM   15  C15 UNL     1      48.117  -8.383 104.733  1.00  0.00     0.010 C 
HETATM   16  C16 UNL     1      48.065  -8.844 106.204  1.00  0.00     0.052 C 
HETATM   17  C17 UNL     1      47.321  -7.738 106.994  1.00  0.00     0.128 C 
HETATM   18  O1  UNL     1      47.146  -1.145  99.801  1.00  0.00    -0.293 OA
HETATM   19  C18 UNL     1      48.293  -6.875 107.701  1.00  0.00    -0.078 C 
HETATM   20  C19 UNL     1      49.083  -6.186 108.288  1.00  0.00     0.015 C 
HETATM   21  C20 UNL     1      44.603  -4.828 101.944  1.00  0.00     0.020 C 
HETATM   22  C21 UNL     1      45.241  -7.842 105.536  1.00  0.00     0.020 C 
ENDROOT
BRANCH  17  23
HETATM   23  O2  UNL     1      46.476  -8.332 107.968  1.00  0.00    -0.377 OA
HETATM   24  H28 UNL     1      46.476  -7.739 108.738  1.00  0.00     0.211 HD
ENDBRANCH  17  23
TORSDOF 1
ENDMDL
