MODEL 1
REMARK VINA RESULT:      -7.8      0.000      0.000
REMARK  6 active torsions:
REMARK  status: ('A' for Active; 'I' for Inactive)
REMARK    1  A    between atoms: N1_2  and  C7_10 
REMARK    2  A    between atoms: N2_6  and  C5_7 
REMARK    3  A    between atoms: C9_14  and  C11_17 
REMARK    4  A    between atoms: C12_18  and  C13_19 
REMARK    5  A    between atoms: C16_22  and  O4_27 
REMARK    6  A    between atoms: C17_23  and  O3_25 
ROOT
HETATM    1  C1  UNL     1      45.872  -0.329 100.266  1.00  0.00     0.333 A 
HETATM    2  N1  UNL     1      46.770   0.471  99.531  1.00  0.00    -0.264 N 
HETATM    3  C2  UNL     1      47.794   1.251 100.080  1.00  0.00     0.282 A 
HETATM    4  C3  UNL     1      47.797   1.253 101.503  1.00  0.00     0.151 A 
HETATM    5  C4  UNL     1      46.917   0.525 102.240  1.00  0.00     0.169 A 
HETATM    6  N2  UNL     1      45.946  -0.256 101.659  1.00  0.00    -0.282 N 
HETATM    7  O1  UNL     1      45.061  -1.069  99.703  1.00  0.00    -0.246 OA
HETATM    8  O2  UNL     1      48.622   1.860  99.407  1.00  0.00    -0.265 OA
HETATM    9  N3  UNL     1      48.587   1.896 102.422  1.00  0.00    -0.328 N 
HETATM   10  C9  UNL     1      48.182   1.469 103.681  1.00  0.00     0.132 A 
HETATM   11  N4  UNL     1      47.143   0.655 103.572  1.00  0.00    -0.211 NA
HETATM   12  C10 UNL     1      49.638   2.838 102.109  1.00  0.00     0.158 C 
ENDROOT
BRANCH  10  13
HETATM   13  C11 UNL     1      48.857   1.892 104.857  1.00  0.00     0.051 C 
HETATM   14  C12 UNL     1      49.856   1.146 105.359  1.00  0.00     0.015 C 
BRANCH  14  15
HETATM   15  C13 UNL     1      50.629   1.516 106.551  1.00  0.00    -0.033 A 
HETATM   16  C14 UNL     1      50.611   0.738 107.712  1.00  0.00     0.014 A 
HETATM   17  C15 UNL     1      51.376   1.103 108.823  1.00  0.00     0.040 A 
HETATM   18  C16 UNL     1      52.178   2.249 108.785  1.00  0.00     0.101 A 
HETATM   19  C17 UNL     1      52.215   3.030 107.614  1.00  0.00     0.102 A 
HETATM   20  C18 UNL     1      51.445   2.654 106.505  1.00  0.00     0.051 A 
BRANCH  18  21
HETATM   21  O4  UNL     1      52.960   2.684 109.827  1.00  0.00    -0.353 OA
HETATM   22  C20 UNL     1      52.311   3.327 110.914  1.00  0.00     0.210 C 
ENDBRANCH  18  21
BRANCH  19  23
HETATM   23  O3  UNL     1      53.030   4.135 107.653  1.00  0.00    -0.353 OA
HETATM   24  C19 UNL     1      53.644   4.547 106.441  1.00  0.00     0.210 C 
ENDBRANCH  19  23
ENDBRANCH  14  15
ENDBRANCH  10  13
BRANCH   6  25
HETATM   25  C5  UNL     1      45.054  -1.071 102.475  1.00  0.00     0.131 C 
HETATM   26  C6  UNL     1      45.646  -2.439 102.774  1.00  0.00     0.027 C 
ENDBRANCH   6  25
BRANCH   2  27
HETATM   27  C7  UNL     1      46.698   0.394  98.077  1.00  0.00     0.133 C 
HETATM   28  C8  UNL     1      45.787   1.468  97.500  1.00  0.00     0.027 C 
ENDBRANCH   2  27
TORSDOF 6
ENDMDL
