MODEL 1
REMARK VINA RESULT:      -7.6      0.000      0.000
REMARK  8 active torsions:
REMARK  status: ('A' for Active; 'I' for Inactive)
REMARK    1  A    between atoms: C6_6  and  N1_7 
REMARK       I    between atoms: N1_7  and  C7_8 
REMARK    2  A    between atoms: N1_7  and  C8_9 
REMARK    3  A    between atoms: C7_8  and  C9_10 
REMARK    4  A    between atoms: C9_10  and  O2_12 
REMARK    5  A    between atoms: N2_15  and  C14_18 
REMARK    6  A    between atoms: C12_16  and  C13_17 
REMARK    7  A    between atoms: C14_18  and  C15_19 
REMARK    8  A    between atoms: C15_19  and  C16_20 
ROOT
HETATM    1  C8  UNL     1      50.775   2.441 105.748  1.00  0.00     0.096 A 
HETATM    2  C10 UNL     1      49.392   2.865 106.176  1.00  0.00     0.056 A 
HETATM    3  C11 UNL     1      48.436   2.719 105.012  1.00  0.00     0.274 A 
HETATM    4  N2  UNL     1      48.641   1.514 104.277  1.00  0.00     0.088 N 
HETATM    5  C12 UNL     1      49.323   0.523 105.088  1.00  0.00     0.274 A 
HETATM    6  C13 UNL     1      50.746   0.991 105.290  1.00  0.00     0.056 A 
HETATM    7 CL1  UNL     1      49.345   1.897 104.955  1.00  0.00    -0.145 Cl
HETATM    8  H31 UNL     1      50.500   2.334 105.556  1.00  0.00     0.145 HD
ENDROOT
BRANCH   1   9
HETATM    9  N1  UNL     1      51.787   2.650 106.753  1.00  0.00    -0.311 N 
HETATM   10  C7  UNL     1      51.684   2.051 108.023  1.00  0.00     0.248 C 
HETATM   11  O1  UNL     1      50.662   1.328 108.268  1.00  0.00    -0.271 OA
BRANCH   9  12
HETATM   12  C6  UNL     1      52.897   3.477 106.408  1.00  0.00     0.038 A 
HETATM   13  C1  UNL     1      54.193   3.026 106.488  1.00  0.00     0.030 A 
HETATM   14  C2  UNL     1      55.209   3.892 106.143  1.00  0.00     0.003 A 
HETATM   15  C3  UNL     1      54.928   5.172 105.729  1.00  0.00     0.007 A 
HETATM   16  C4  UNL     1      53.643   5.663 105.635  1.00  0.00    -0.060 A 
HETATM   17  C5  UNL     1      52.641   4.789 105.982  1.00  0.00     0.036 A 
HETATM   18  C23 UNL     1      53.348   7.062 105.186  1.00  0.00     0.048 C 
ENDBRANCH   9  12
BRANCH  10  19
HETATM   19  C9  UNL     1      52.681   2.202 109.095  1.00  0.00     0.270 C 
BRANCH  19  20
HETATM   20  O2  UNL     1      52.654   3.436 109.703  1.00  0.00    -0.387 OA
HETATM   21  C22 UNL     1      52.264   3.348 111.011  1.00  0.00     0.202 C 
ENDBRANCH  19  20
ENDBRANCH  10  19
ENDBRANCH   1   9
BRANCH   4  22
HETATM   22  C14 UNL     1      47.426   0.913 103.780  1.00  0.00     0.277 C 
BRANCH  22  23
HETATM   23  C15 UNL     1      47.405   0.738 102.293  1.00  0.00     0.068 C 
BRANCH  23  24
HETATM   24  C16 UNL     1      48.024   1.930 101.657  1.00  0.00    -0.057 A 
HETATM   25  C17 UNL     1      49.290   1.933 101.115  1.00  0.00     0.007 A 
HETATM   26  C18 UNL     1      49.801   3.085 100.530  1.00  0.00     0.001 A 
HETATM   27  C19 UNL     1      49.089   4.270 100.459  1.00  0.00     0.000 A 
HETATM   28  C20 UNL     1      47.828   4.262 101.002  1.00  0.00     0.001 A 
HETATM   29  C21 UNL     1      47.293   3.123 101.591  1.00  0.00     0.007 A 
ENDBRANCH  23  24
ENDBRANCH  22  23
ENDBRANCH   4  22
TORSDOF 8
ENDMDL
