MODEL 1
REMARK VINA RESULT:      -7.3      0.000      0.000
REMARK  2 active torsions:
REMARK  status: ('A' for Active; 'I' for Inactive)
REMARK    1  A    between atoms: C3_3  and  C9_14 
REMARK    2  A    between atoms: C6_9  and  C11_16 
ROOT
HETATM    1  C1  UNL     1      52.236   3.838 106.372  1.00  0.00     0.096 A 
HETATM    2  C2  UNL     1      50.947   3.442 106.055  1.00  0.00     0.029 A 
HETATM    3  C3  UNL     1      50.118   4.007 104.981  1.00  0.00     0.074 C 
HETATM    4  N1  UNL     1      50.073   5.259 104.688  1.00  0.00    -0.280 NA
HETATM    5  C4  UNL     1      50.817   6.256 105.446  1.00  0.00     0.230 C 
HETATM    6  C5  UNL     1      52.284   6.069 105.354  1.00  0.00     0.155 A 
HETATM    7  N2  UNL     1      52.917   4.945 105.852  1.00  0.00    -0.276 N 
HETATM    8  S1  UNL     1      52.971   2.871 107.551  1.00  0.00    -0.075 SA
HETATM    9  C6  UNL     1      51.565   1.927 107.755  1.00  0.00    -0.015 A 
HETATM   10  C7  UNL     1      50.561   2.341 106.904  1.00  0.00     0.031 A 
HETATM   11  N3  UNL     1      53.169   6.951 104.947  1.00  0.00    -0.133 NA
HETATM   12  N4  UNL     1      54.410   6.435 105.183  1.00  0.00    -0.135 NA
HETATM   13  C8  UNL     1      54.269   5.243 105.727  1.00  0.00     0.131 A 
HETATM   14  C10 UNL     1      55.405   4.349 106.053  1.00  0.00     0.093 C 
ENDROOT
BRANCH   3  15
HETATM   15  C9  UNL     1      49.277   3.069 104.173  1.00  0.00    -0.007 A 
HETATM   16  C13 UNL     1      48.088   2.578 104.726  1.00  0.00     0.014 A 
HETATM   17  C14 UNL     1      47.280   1.708 103.993  1.00  0.00     0.001 A 
HETATM   18  C15 UNL     1      47.652   1.333 102.702  1.00  0.00     0.000 A 
HETATM   19  C16 UNL     1      48.826   1.833 102.139  1.00  0.00     0.001 A 
HETATM   20  C17 UNL     1      49.636   2.704 102.869  1.00  0.00     0.014 A 
ENDBRANCH   3  15
BRANCH   9  21
HETATM   21  C11 UNL     1      51.529   0.812 108.756  1.00  0.00     0.042 C 
HETATM   22  C12 UNL     1      50.291  -0.056 108.585  1.00  0.00     0.010 C 
ENDBRANCH   9  21
TORSDOF 2
ENDMDL
