MODEL 1
REMARK VINA RESULT:      -8.2      0.000      0.000
REMARK  7 active torsions:
REMARK  status: ('A' for Active; 'I' for Inactive)
REMARK    1  A    between atoms: C3_3  and  O5_28 
REMARK    2  A    between atoms: C7_7  and  O7_32 
REMARK    3  A    between atoms: C12_12  and  O6_29 
REMARK    4  A    between atoms: C13_13  and  C14_14 
REMARK    5  A    between atoms: C16_16  and  C19_21 
REMARK    6  A    between atoms: C17_17  and  O4_24 
REMARK    7  A    between atoms: C18_18  and  N2_25 
REMARK       I    between atoms: C19_21  and  N1_22 
ROOT
HETATM    1  C1  UNL     1      49.499   3.845 100.436  1.00  0.00     0.027 A 
HETATM    2  C2  UNL     1      49.706   4.384 101.670  1.00  0.00     0.039 A 
HETATM    3  C3  UNL     1      50.175   5.670 101.822  1.00  0.00     0.079 A 
HETATM    4  C4  UNL     1      50.434   6.405 100.694  1.00  0.00     0.044 A 
HETATM    5  C5  UNL     1      50.228   5.866  99.423  1.00  0.00     0.008 A 
HETATM    6  C6  UNL     1      49.759   4.579  99.285  1.00  0.00     0.045 A 
HETATM    7  C7  UNL     1      50.928   7.699 100.830  1.00  0.00     0.094 A 
HETATM    8  C8  UNL     1      51.220   8.469  99.726  1.00  0.00     0.054 A 
HETATM    9  C9  UNL     1      51.020   7.948  98.465  1.00  0.00    -0.034 A 
HETATM   10  C10 UNL     1      50.514   6.630  98.307  1.00  0.00    -0.042 A 
HETATM   11  C11 UNL     1      51.691   9.837  99.828  1.00  0.00     0.205 A 
HETATM   12  C12 UNL     1      52.704  10.281  98.809  1.00  0.00     0.194 A 
HETATM   13  C13 UNL     1      52.451   9.776  97.443  1.00  0.00     0.080 A 
HETATM   14  C14 UNL     1      51.378   8.729  97.278  1.00  0.00     0.051 A 
HETATM   15  C15 UNL     1      52.852  11.759  98.861  1.00  0.00     0.210 C 
HETATM   16  C16 UNL     1      53.494  12.410  97.740  1.00  0.00     0.112 C 
HETATM   17  C17 UNL     1      53.241  11.967  96.531  1.00  0.00     0.096 C 
HETATM   18  C18 UNL     1      52.324  10.840  96.357  1.00  0.00     0.287 C 
HETATM   19  O1  UNL     1      51.244  10.573 100.734  1.00  0.00    -0.288 OA
HETATM   20  O2  UNL     1      52.432  12.445  99.854  1.00  0.00    -0.288 OA
HETATM   21 CL1  UNL     1      49.534   3.832  97.718  1.00  0.00    -0.083 Cl
HETATM   22  C22 UNL     1      50.198   6.112  96.972  1.00  0.00     0.049 C 
HETATM   23 CL2  UNL     1      51.185   9.043  98.949  1.00  0.00    -0.145 Cl
HETATM   24  H22 UNL     1      51.832   9.551  97.838  1.00  0.00     0.145 HD
ENDROOT
BRANCH  16  25
HETATM   25  C19 UNL     1      54.397  13.564  97.974  1.00  0.00     0.255 C 
HETATM   26  N1  UNL     1      54.997  13.826  99.216  1.00  0.00    -0.366 N 
HETATM   27  H7  UNL     1      55.283  14.791  99.466  1.00  0.00     0.159 HD
HETATM   28  H8  UNL     1      55.159  13.060  99.892  1.00  0.00     0.159 HD
HETATM   29  O3  UNL     1      54.623  14.330  97.001  1.00  0.00    -0.268 OA
ENDBRANCH  16  25
BRANCH  17  30
HETATM   30  O4  UNL     1      53.878  12.618  95.488  1.00  0.00    -0.362 OA
HETATM   31  H9  UNL     1      53.435  12.594  94.575  1.00  0.00     0.217 HD
ENDBRANCH  17  30
BRANCH  12  32
HETATM   32  O6  UNL     1      53.976   9.800  99.268  1.00  0.00    -0.373 OA
HETATM   33  H17 UNL     1      53.892   8.928  99.688  1.00  0.00     0.211 HD
ENDBRANCH  12  32
BRANCH  18  34
HETATM   34  N2  UNL     1      50.975  11.154  96.133  1.00  0.00     0.091 N 
HETATM   35  C20 UNL     1      50.407  12.326  96.665  1.00  0.00     0.310 C 
HETATM   36  C21 UNL     1      50.582  11.020  94.741  1.00  0.00     0.310 C 
ENDBRANCH  18  34
BRANCH   7  37
HETATM   37  O7  UNL     1      51.134   8.234 102.081  1.00  0.00    -0.359 OA
HETATM   38  H21 UNL     1      50.999   9.155 102.375  1.00  0.00     0.217 HD
ENDBRANCH   7  37
BRANCH   3  39
HETATM   39  O5  UNL     1      50.382   6.208 103.058  1.00  0.00    -0.360 OA
HETATM   40  H16 UNL     1      50.727   7.152 103.143  1.00  0.00     0.217 HD
ENDBRANCH   3  39
TORSDOF 7
ENDMDL
