MODEL 1
REMARK VINA RESULT:      -7.4      0.000      0.000
REMARK  10 active torsions:
REMARK  status: ('A' for Active; 'I' for Inactive)
REMARK    1  A    between atoms: C4_4  and  N1_9 
REMARK    2  A    between atoms: N1_9  and  C9_10 
REMARK    3  A    between atoms: C14_17  and  O3_24 
REMARK    4  A    between atoms: C15_18  and  O1_20 
REMARK    5  A    between atoms: O1_20  and  C17_21 
REMARK    6  A    between atoms: C17_21  and  C18_22 
REMARK    7  A    between atoms: C18_22  and  O2_23 
REMARK    8  A    between atoms: O3_24  and  C19_25 
REMARK    9  A    between atoms: C19_25  and  C20_26 
REMARK   10  A    between atoms: C20_26  and  O4_27 
ROOT
HETATM    1  C1  UNL     1      54.164   4.932 106.471  1.00  0.00     0.021 A 
HETATM    2  C2  UNL     1      54.440   5.928 105.540  1.00  0.00     0.004 A 
HETATM    3  C3  UNL     1      53.399   6.523 104.823  1.00  0.00     0.029 A 
HETATM    4  C4  UNL     1      52.062   6.151 105.041  1.00  0.00     0.035 A 
HETATM    5  C5  UNL     1      51.807   5.120 105.955  1.00  0.00     0.050 A 
HETATM    6  C6  UNL     1      52.847   4.521 106.675  1.00  0.00     0.019 A 
HETATM    7  C7  UNL     1      52.560   3.480 107.614  1.00  0.00    -0.078 C 
HETATM    8  C8  UNL     1      52.318   2.606 108.403  1.00  0.00     0.018 C 
ENDROOT
BRANCH   4   9
HETATM    9  N1  UNL     1      51.051   6.735 104.242  1.00  0.00    -0.340 N 
HETATM   10  H6  UNL     1      50.164   6.762 104.735  1.00  0.00     0.167 HD
BRANCH   9  11
HETATM   11  C9  UNL     1      50.798   6.545 102.857  1.00  0.00     0.142 A 
HETATM   12  N2  UNL     1      51.485   7.274 101.958  1.00  0.00    -0.224 NA
HETATM   13  C10 UNL     1      51.240   7.032 100.668  1.00  0.00     0.236 A 
HETATM   14  N3  UNL     1      50.375   6.135 100.185  1.00  0.00    -0.241 NA
HETATM   15  C11 UNL     1      49.685   5.425 101.081  1.00  0.00     0.075 A 
HETATM   16  C12 UNL     1      49.845   5.583 102.465  1.00  0.00     0.042 A 
HETATM   17  C13 UNL     1      48.773   4.493 100.616  1.00  0.00     0.072 A 
HETATM   18  C16 UNL     1      49.062   4.796 103.356  1.00  0.00     0.057 A 
HETATM   19  C15 UNL     1      48.141   3.865 102.876  1.00  0.00     0.103 A 
HETATM   20  C14 UNL     1      47.992   3.736 101.493  1.00  0.00     0.104 A 
BRANCH  19  21
HETATM   21  O1  UNL     1      47.360   3.049 103.646  1.00  0.00    -0.346 OA
BRANCH  21  22
HETATM   22  C17 UNL     1      47.934   1.882 104.225  1.00  0.00     0.201 C 
BRANCH  22  23
HETATM   23  C18 UNL     1      47.125   0.623 103.920  1.00  0.00     0.190 C 
BRANCH  23  24
HETATM   24  O2  UNL     1      46.391   0.785 102.710  1.00  0.00    -0.399 OA
HETATM   25  H14 UNL     1      46.922   0.388 101.997  1.00  0.00     0.209 HD
ENDBRANCH  23  24
ENDBRANCH  22  23
ENDBRANCH  21  22
ENDBRANCH  19  21
BRANCH  20  26
HETATM   26  O3  UNL     1      47.106   2.812 101.000  1.00  0.00    -0.346 OA
BRANCH  26  27
HETATM   27  C19 UNL     1      46.986   2.862  99.569  1.00  0.00     0.201 C 
BRANCH  27  28
HETATM   28  C20 UNL     1      47.279   1.504  98.919  1.00  0.00     0.193 C 
BRANCH  28  29
HETATM   29  O4  UNL     1      47.772   0.517  99.831  1.00  0.00    -0.394 OA
HETATM   30  C21 UNL     1      47.030  -0.695  99.818  1.00  0.00     0.201 C 
ENDBRANCH  28  29
ENDBRANCH  27  28
ENDBRANCH  26  27
ENDBRANCH  20  26
ENDBRANCH   9  11
ENDBRANCH   4   9
TORSDOF 10
ENDMDL
