MODEL 1
REMARK VINA RESULT:      -7.1      0.000      0.000
REMARK  7 active torsions:
REMARK  status: ('A' for Active; 'I' for Inactive)
REMARK    1  A    between atoms: C6_6  and  N1_7 
REMARK       I    between atoms: N1_7  and  C7_8 
REMARK    2  A    between atoms: N1_7  and  C8_9 
REMARK    3  A    between atoms: C7_8  and  C9_10 
REMARK    4  A    between atoms: C9_10  and  O2_12 
REMARK    5  A    between atoms: C12_16  and  C13_17 
REMARK    6  A    between atoms: C14_18  and  C15_19 
REMARK    7  A    between atoms: C15_19  and  C16_20 
ROOT
HETATM    1  C8  UNL     1      49.733   2.948 104.931  1.00  0.00     0.096 A 
HETATM    2  C10 UNL     1      48.309   2.817 105.364  1.00  0.00     0.056 A 
HETATM    3  C11 UNL     1      47.455   1.890 104.577  1.00  0.00     0.274 A 
HETATM    4  N2  UNL     1      47.728   2.036 103.149  1.00  0.00     0.088 N 
HETATM    5  C12 UNL     1      49.090   1.593 102.879  1.00  0.00     0.274 A 
HETATM    6  C13 UNL     1      50.106   2.424 103.613  1.00  0.00     0.056 A 
HETATM    7  C14 UNL     1      47.542   3.408 102.730  1.00  0.00     0.277 A 
HETATM    8 CL1  UNL     1      48.838   2.193 103.558  1.00  0.00    -0.145 Cl
HETATM    9  H29 UNL     1      49.768   2.060 104.554  1.00  0.00     0.145 HD
ENDROOT
BRANCH   1  10
HETATM   10  N1  UNL     1      50.582   2.382 105.952  1.00  0.00    -0.311 N 
HETATM   11  C7  UNL     1      51.740   3.147 106.433  1.00  0.00     0.248 C 
HETATM   12  O1  UNL     1      51.891   4.283 105.938  1.00  0.00    -0.271 OA
BRANCH  10  13
HETATM   13  C6  UNL     1      50.414   1.095 106.520  1.00  0.00     0.037 A 
HETATM   14  C1  UNL     1      50.659  -0.012 105.696  1.00  0.00     0.030 A 
HETATM   15  C2  UNL     1      50.531  -1.279 106.222  1.00  0.00     0.002 A 
HETATM   16  C3  UNL     1      50.167  -1.477 107.543  1.00  0.00     0.000 A 
HETATM   17  C4  UNL     1      49.925  -0.402 108.355  1.00  0.00     0.002 A 
HETATM   18  C5  UNL     1      50.060   0.880 107.798  1.00  0.00     0.030 A 
ENDBRANCH  10  13
BRANCH  11  19
HETATM   19  C9  UNL     1      52.634   2.574 107.435  1.00  0.00     0.270 C 
BRANCH  19  20
HETATM   20  O2  UNL     1      52.700   3.310 108.577  1.00  0.00    -0.387 OA
HETATM   21  C22 UNL     1      52.429   2.581 109.708  1.00  0.00     0.202 C 
ENDBRANCH  19  20
ENDBRANCH  11  19
ENDBRANCH   1  10
BRANCH   7  22
HETATM   22  C15 UNL     1      47.648   3.635 101.259  1.00  0.00     0.068 C 
BRANCH  22  23
HETATM   23  C16 UNL     1      48.710   4.543 100.847  1.00  0.00    -0.057 A 
HETATM   24  C17 UNL     1      49.133   4.716  99.567  1.00  0.00     0.007 A 
HETATM   25  C18 UNL     1      50.159   5.613  99.230  1.00  0.00     0.001 A 
HETATM   26  C19 UNL     1      50.769   6.354 100.238  1.00  0.00     0.000 A 
HETATM   27  C20 UNL     1      50.334   6.172 101.522  1.00  0.00     0.001 A 
HETATM   28  C21 UNL     1      49.329   5.291 101.833  1.00  0.00     0.007 A 
ENDBRANCH  22  23
ENDBRANCH   7  22
TORSDOF 7
ENDMDL
