MODEL 1
REMARK VINA RESULT:      -8.8      0.000      0.000
REMARK  3 active torsions:
REMARK  status: ('A' for Active; 'I' for Inactive)
REMARK    1  A    between atoms: C2_2  and  O2_19 
REMARK    2  A    between atoms: O2_19  and  S1_20 
REMARK    3  A    between atoms: S1_20  and  O3_21 
ROOT
HETATM    1  C1  UNL     1      51.920   7.837 101.309  1.00  0.00     0.039 A 
HETATM    2  C2  UNL     1      51.372   6.820 100.542  1.00  0.00     0.091 A 
HETATM    3  C3  UNL     1      50.799   7.100  99.306  1.00  0.00     0.045 A 
HETATM    4  C4  UNL     1      50.804   8.412  98.802  1.00  0.00    -0.049 A 
HETATM    5  C5  UNL     1      51.409   9.449  99.544  1.00  0.00    -0.047 A 
HETATM    6  C6  UNL     1      51.939   9.143 100.812  1.00  0.00     0.011 A 
HETATM    7  C7  UNL     1      50.191   8.643  97.441  1.00  0.00     0.039 C 
HETATM    8  C8  UNL     1      49.973  10.114  97.098  1.00  0.00     0.010 C 
HETATM    9  C9  UNL     1      51.212  10.925  97.477  1.00  0.00    -0.000 A 
HETATM   10  C10 UNL     1      51.388  10.887  99.028  1.00  0.00     0.024 A 
HETATM   11  C11 UNL     1      51.123  12.387  97.043  1.00  0.00     0.006 A 
HETATM   12  C12 UNL     1      52.425  13.148  97.368  1.00  0.00     0.021 C 
HETATM   13  C13 UNL     1      52.576  13.188  98.885  1.00  0.00     0.018 C 
HETATM   14  C14 UNL     1      52.583  11.768  99.485  1.00  0.00     0.011 C 
HETATM   15  C15 UNL     1      50.841  12.738  95.585  1.00  0.00     0.013 C 
HETATM   16  C16 UNL     1      51.102  14.251  95.543  1.00  0.00     0.079 C 
HETATM   17  C17 UNL     1      52.089  14.459  96.681  1.00  0.00     0.135 C 
HETATM   18  O1  UNL     1      52.567  15.546  96.980  1.00  0.00    -0.297 OA
HETATM   19  C18 UNL     1      53.705  12.618  96.696  1.00  0.00     0.024 C 
HETATM   20  C19 UNL     1      51.064  11.676  98.093  1.00  0.00     0.299 A 
HETATM   21  C20 UNL     1      52.387  11.201  97.442  1.00  0.00     0.299 A 
HETATM   22  N1  UNL     1      52.467   9.742  97.306  1.00  0.00     0.086 N 
HETATM   23  C21 UNL     1      52.310   9.102  98.625  1.00  0.00     0.299 A 
HETATM   24  C22 UNL     1      51.235   9.761  99.525  1.00  0.00     0.299 A 
HETATM   25  N2  UNL     1      50.297  10.607  98.766  1.00  0.00     0.086 N 
HETATM   26  H27 UNL     1      53.365   9.477  96.904  1.00  0.00     0.315 HD
HETATM   27  H32 UNL     1      49.937  10.013  98.015  1.00  0.00     0.315 HD
ENDROOT
BRANCH   2  28
HETATM   28  O2  UNL     1      51.337   5.530 100.996  1.00  0.00    -0.221 OA
BRANCH  28  29
HETATM   29  S1  UNL     1      49.975   4.987 101.720  1.00  0.00     0.245 S 
HETATM   30  O4  UNL     1      50.104   3.565 101.962  1.00  0.00    -0.579 OA
HETATM   31  O5  UNL     1      49.632   5.903 102.785  1.00  0.00    -0.579 OA
BRANCH  29  32
HETATM   32  O3  UNL     1      48.841   5.133 100.577  1.00  0.00    -0.273 OA
HETATM   33  H19 UNL     1      48.755   6.083 100.359  1.00  0.00     0.234 HD
ENDBRANCH  29  32
ENDBRANCH  28  29
ENDBRANCH   2  28
TORSDOF 3
ENDMDL
