MODEL 1
REMARK VINA RESULT:      -9.1      0.000      0.000
REMARK  8 active torsions:
REMARK  status: ('A' for Active; 'I' for Inactive)
REMARK    1  A    between atoms: C1_2  and  C3_4 
REMARK    2  A    between atoms: C2_3  and  C4_7 
REMARK    3  A    between atoms: C3_4  and  O1_5 
REMARK    4  A    between atoms: O1_5  and  C23_30 
REMARK    5  A    between atoms: C4_7  and  C5_8 
REMARK    6  A    between atoms: N2_17  and  C21_26 
REMARK    7  A    between atoms: C21_26  and  C22_27 
REMARK    8  A    between atoms: C22_27  and  O5_29 
ROOT
HETATM    1  N1  UNL     1      49.645   2.284 103.492  1.00  0.00    -0.396 N 
HETATM    2  C1  UNL     1      49.022   1.516 102.537  1.00  0.00     0.178 A 
HETATM    3  C2  UNL     1      47.539   1.513 102.384  1.00  0.00     0.039 A 
HETATM    4  C11 UNL     1      50.373   0.791 105.212  1.00  0.00     0.039 C 
HETATM    5  C12 UNL     1      49.646   2.112 104.871  1.00  0.00     0.171 A 
HETATM    6  C13 UNL     1      50.428   3.270 105.457  1.00  0.00     0.247 C 
HETATM    7  N2  UNL     1      50.979   3.517 106.742  1.00  0.00    -0.306 N 
HETATM    8  C14 UNL     1      51.342   2.462 107.643  1.00  0.00     0.044 A 
HETATM    9  C15 UNL     1      50.997   1.104 107.609  1.00  0.00    -0.031 A 
HETATM   10  C16 UNL     1      50.146   0.381 106.630  1.00  0.00     0.043 C 
HETATM   11  O3  UNL     1      50.644   4.229 104.643  1.00  0.00    -0.271 OA
HETATM   12  C17 UNL     1      52.148   2.963 108.635  1.00  0.00     0.030 A 
HETATM   13  C18 UNL     1      52.631   2.108 109.622  1.00  0.00     0.002 A 
HETATM   14  C19 UNL     1      52.296   0.773 109.592  1.00  0.00     0.001 A 
HETATM   15  C20 UNL     1      51.486   0.274 108.596  1.00  0.00     0.009 A 
HETATM   16 CL1  UNL     1      48.672   1.921 103.820  1.00  0.00    -0.145 Cl
HETATM   17  H1  UNL     1      49.867   3.254 103.126  1.00  0.00     0.154 HD
HETATM   18  H29 UNL     1      49.683   2.129 104.730  1.00  0.00     0.145 HD
ENDROOT
BRANCH   2  19
HETATM   19  C3  UNL     1      49.565   1.967 101.176  1.00  0.00     0.281 C 
HETATM   20  O2  UNL     1      49.225   1.373 100.136  1.00  0.00    -0.263 OA
BRANCH  19  21
HETATM   21  O1  UNL     1      50.434   3.034 101.097  1.00  0.00    -0.320 OA
BRANCH  21  22
HETATM   22  C23 UNL     1      49.951   4.231 100.462  1.00  0.00     0.174 C 
HETATM   23  C24 UNL     1      49.299   5.142 101.459  1.00  0.00     0.034 C 
ENDBRANCH  21  22
ENDBRANCH  19  21
ENDBRANCH   2  19
BRANCH   7  24
HETATM   24  C21 UNL     1      51.165   4.893 107.138  1.00  0.00     0.242 C 
BRANCH  24  25
HETATM   25  C22 UNL     1      52.171   5.588 106.316  1.00  0.00     0.158 C 
HETATM   26  O4  UNL     1      53.347   5.112 106.309  1.00  0.00    -0.649 OA
BRANCH  25  27
HETATM   27  O5  UNL     1      51.943   6.715 105.551  1.00  0.00    -0.775 OA
HETATM   28  H23 UNL     1      51.963   7.664 105.937  1.00  0.00     0.167 HD
ENDBRANCH  25  27
ENDBRANCH  24  25
ENDBRANCH   7  24
BRANCH   3  29
HETATM   29  C4  UNL     1      46.720   1.090 103.531  1.00  0.00     0.041 C 
BRANCH  29  30
HETATM   30  C5  UNL     1      46.327  -0.355 103.350  1.00  0.00    -0.058 A 
HETATM   31  C6  UNL     1      45.906  -0.770 102.104  1.00  0.00     0.007 A 
HETATM   32  C7  UNL     1      45.525  -2.072 101.855  1.00  0.00     0.001 A 
HETATM   33  C8  UNL     1      45.564  -2.979 102.876  1.00  0.00     0.000 A 
HETATM   34  C9  UNL     1      45.979  -2.589 104.119  1.00  0.00     0.001 A 
HETATM   35  C10 UNL     1      46.366  -1.266 104.362  1.00  0.00     0.007 A 
ENDBRANCH  29  30
ENDBRANCH   3  29
TORSDOF 8
ENDMDL
