MODEL 1
REMARK VINA RESULT:      -7.8      0.000      0.000
REMARK  4 active torsions:
REMARK  status: ('A' for Active; 'I' for Inactive)
REMARK    1  A    between atoms: C3_3  and  C12_17 
REMARK    2  A    between atoms: C6_9  and  C7_10 
REMARK    3  A    between atoms: C7_10  and  C8_12 
REMARK    4  A    between atoms: C16_21  and  N4_23 
REMARK       I    between atoms: N4_23  and  C18_24 
ROOT
HETATM    1  C1  UNL     1      46.697   0.703 103.379  1.00  0.00     0.121 A 
HETATM    2  C2  UNL     1      47.612   0.885 104.534  1.00  0.00     0.052 A 
HETATM    3  C3  UNL     1      48.824   1.401 104.255  1.00  0.00     0.072 A 
HETATM    4  N1  UNL     1      49.136   1.723 102.919  1.00  0.00    -0.214 N 
HETATM    5  C4  UNL     1      48.203   1.503 101.893  1.00  0.00     0.166 A 
HETATM    6  N2  UNL     1      46.957   0.994 102.143  1.00  0.00    -0.240 NA
HETATM    7  N3  UNL     1      50.290   2.257 102.425  1.00  0.00    -0.177 NA
HETATM    8  C5  UNL     1      50.085   2.347 101.113  1.00  0.00     0.159 A 
HETATM    9  C6  UNL     1      48.808   1.907 100.719  1.00  0.00     0.082 A 
ENDROOT
BRANCH   3  10
HETATM   10  C12 UNL     1      49.776   1.622 105.365  1.00  0.00    -0.005 A 
HETATM   11  C13 UNL     1      49.944   0.659 106.366  1.00  0.00     0.017 A 
HETATM   12  C14 UNL     1      50.845   0.879 107.404  1.00  0.00     0.045 A 
HETATM   13  C15 UNL     1      51.592   2.056 107.445  1.00  0.00     0.143 A 
HETATM   14  C16 UNL     1      51.465   3.049 106.457  1.00  0.00     0.076 A 
HETATM   15  F1  UNL     1      52.476   2.181 108.447  1.00  0.00    -0.204 F 
HETATM   16  C17 UNL     1      50.533   2.810 105.432  1.00  0.00     0.046 A 
BRANCH  14  17
HETATM   17  N4  UNL     1      52.232   4.275 106.491  1.00  0.00    -0.320 N 
HETATM   18  C18 UNL     1      53.629   4.259 106.348  1.00  0.00     0.220 C 
HETATM   19  C20 UNL     1      54.334   5.596 106.397  1.00  0.00     0.117 C 
HETATM   20  O2  UNL     1      54.315   3.242 106.210  1.00  0.00    -0.274 OA
HETATM   21  C19 UNL     1      51.518   5.502 106.849  1.00  0.00     0.159 C 
ENDBRANCH  14  17
ENDBRANCH   3  10
BRANCH   9  22
HETATM   22  C7  UNL     1      48.239   1.827  99.386  1.00  0.00     0.204 C 
HETATM   23  O1  UNL     1      47.678   0.803  99.002  1.00  0.00    -0.286 OA
BRANCH  22  24
HETATM   24  C8  UNL     1      48.419   2.985  98.510  1.00  0.00     0.056 A 
HETATM   25  S1  UNL     1      47.244   4.221  98.316  1.00  0.00    -0.098 SA
HETATM   26  C9  UNL     1      48.207   5.064  97.182  1.00  0.00     0.050 A 
HETATM   27  C10 UNL     1      49.391   4.413  96.928  1.00  0.00     0.009 A 
HETATM   28  C11 UNL     1      49.508   3.211  97.683  1.00  0.00     0.023 A 
ENDBRANCH  22  24
ENDBRANCH   9  22
TORSDOF 4
ENDMDL
