MODEL 1
REMARK VINA RESULT:      -7.2      0.000      0.000
REMARK  6 active torsions:
REMARK  status: ('A' for Active; 'I' for Inactive)
REMARK    1  A    between atoms: C6_6  and  C7_7 
REMARK    2  A    between atoms: C7_7  and  C8_8 
REMARK    3  A    between atoms: C8_8  and  O2_10 
REMARK    4  A    between atoms: C10_12  and  N1_22 
REMARK    5  A    between atoms: C11_13  and  C12_16 
REMARK    6  A    between atoms: C13_17  and  N2_23 
ROOT
HETATM    1  C1  UNL     1      51.635   0.347 108.176  1.00  0.00     0.010 A 
HETATM    2  C2  UNL     1      51.917   1.615 108.690  1.00  0.00     0.002 A 
HETATM    3  C3  UNL     1      51.597   2.756 107.955  1.00  0.00     0.018 A 
HETATM    4  C4  UNL     1      50.984   2.622 106.707  1.00  0.00     0.051 A 
HETATM    5  C5  UNL     1      50.683   1.356 106.197  1.00  0.00     0.097 A 
HETATM    6  C6  UNL     1      51.011   0.202 106.927  1.00  0.00    -0.013 A 
HETATM    7  C9  UNL     1      50.659   3.821 105.908  1.00  0.00     0.220 A 
HETATM    8  C10 UNL     1      50.047   3.542 104.610  1.00  0.00     0.188 A 
HETATM    9  C11 UNL     1      49.781   2.291 104.204  1.00  0.00     0.126 A 
HETATM   10  O3  UNL     1      50.064   1.176 104.981  1.00  0.00    -0.306 OA
HETATM   11  O4  UNL     1      50.898   4.945 106.323  1.00  0.00    -0.285 OA
ENDROOT
BRANCH   9  12
HETATM   12  C12 UNL     1      49.162   1.930 102.915  1.00  0.00     0.034 A 
HETATM   13  C13 UNL     1      47.852   1.429 102.751  1.00  0.00     0.116 A 
HETATM   14  C14 UNL     1      47.371   1.111 101.465  1.00  0.00     0.037 A 
HETATM   15  C15 UNL     1      48.183   1.293 100.345  1.00  0.00     0.002 A 
HETATM   16  C16 UNL     1      49.472   1.793 100.495  1.00  0.00     0.001 A 
HETATM   17  C17 UNL     1      49.957   2.111 101.767  1.00  0.00     0.017 A 
BRANCH  13  18
HETATM   18  N2  UNL     1      46.938   1.214 103.891  1.00  0.00    -0.115 N 
HETATM   19  O7  UNL     1      46.626   0.043 104.161  1.00  0.00    -0.532 OA
HETATM   20  O8  UNL     1      46.519   2.200 104.512  1.00  0.00    -0.532 OA
ENDBRANCH  13  18
ENDBRANCH   9  12
BRANCH   8  21
HETATM   21  N1  UNL     1      49.718   4.639 103.759  1.00  0.00    -0.108 N 
HETATM   22  O5  UNL     1      48.525   4.966 103.698  1.00  0.00    -0.532 OA
HETATM   23  O6  UNL     1      50.658   5.217 103.201  1.00  0.00    -0.532 OA
ENDBRANCH   8  21
BRANCH   6  24
HETATM   24  C7  UNL     1      50.758  -1.175 106.363  1.00  0.00     0.151 C 
BRANCH  24  25
HETATM   25  C8  UNL     1      49.461  -1.761 106.859  1.00  0.00     0.143 C 
HETATM   26  O1  UNL     1      49.326  -2.526 107.801  1.00  0.00    -0.650 OA
BRANCH  25  27
HETATM   27  O2  UNL     1      48.388  -1.352 106.154  1.00  0.00    -0.776 OA
HETATM   28  H6  UNL     1      48.413  -0.374 106.249  1.00  0.00     0.167 HD
ENDBRANCH  25  27
ENDBRANCH  24  25
ENDBRANCH   6  24
TORSDOF 6
ENDMDL
