MODEL 1
REMARK VINA RESULT:      -5.6      0.000      0.000
REMARK  18 active torsions:
REMARK  status: ('A' for Active; 'I' for Inactive)
REMARK    1  A    between atoms: C2_2  and  C3_3 
REMARK    2  A    between atoms: C3_3  and  C4_4 
REMARK    3  A    between atoms: C4_4  and  C5_5 
REMARK    4  A    between atoms: C5_5  and  C6_6 
REMARK    5  A    between atoms: C6_6  and  C7_7 
REMARK    6  A    between atoms: C7_7  and  C8_8 
REMARK    7  A    between atoms: C8_8  and  C9_9 
REMARK    8  A    between atoms: C9_9  and  C10_10 
REMARK    9  A    between atoms: C10_10  and  C11_11 
REMARK   10  A    between atoms: C11_11  and  C12_12 
REMARK   11  A    between atoms: C12_12  and  C13_13 
REMARK   12  A    between atoms: C13_13  and  C14_14 
REMARK   13  A    between atoms: C14_14  and  C15_15 
REMARK   14  A    between atoms: C15_15  and  C16_16 
REMARK   15  A    between atoms: C16_16  and  C17_17 
REMARK   16  A    between atoms: C16_16  and  O1_18 
REMARK   17  A    between atoms: C17_17  and  C18_19 
REMARK   18  A    between atoms: C18_19  and  O3_21 
ROOT
HETATM    1  C12 UNL     1      50.514  -0.942 106.292  1.00  0.00     0.000 C 
ENDROOT
BRANCH   1   2
HETATM    2  C11 UNL     1      49.570   0.039 105.596  1.00  0.00     0.000 C 
BRANCH   2   3
HETATM    3  C10 UNL     1      50.345   1.020 104.711  1.00  0.00     0.000 C 
BRANCH   3   4
HETATM    4  C9  UNL     1      49.541   2.296 104.461  1.00  0.00     0.000 C 
BRANCH   4   5
HETATM    5  C8  UNL     1      48.038   2.047 104.300  1.00  0.00     0.000 C 
BRANCH   5   6
HETATM    6  C7  UNL     1      47.522   1.986 102.857  1.00  0.00     0.000 C 
BRANCH   6   7
HETATM    7  C6  UNL     1      46.962   0.614 102.472  1.00  0.00     0.000 C 
BRANCH   7   8
HETATM    8  C5  UNL     1      46.473  -0.190 103.682  1.00  0.00     0.000 C 
BRANCH   8   9
HETATM    9  C4  UNL     1      45.616  -1.412 103.333  1.00  0.00     0.000 C 
BRANCH   9  10
HETATM   10  C3  UNL     1      45.957  -2.667 104.136  1.00  0.00    -0.000 C 
BRANCH  10  11
HETATM   11  C2  UNL     1      46.740  -2.321 105.402  1.00  0.00    -0.005 C 
HETATM   12  C1  UNL     1      47.094  -3.569 106.196  1.00  0.00     0.005 C 
ENDBRANCH  10  11
ENDBRANCH   9  10
ENDBRANCH   8   9
ENDBRANCH   7   8
ENDBRANCH   6   7
ENDBRANCH   5   6
ENDBRANCH   4   5
ENDBRANCH   3   4
ENDBRANCH   2   3
ENDBRANCH   1   2
BRANCH   1  13
HETATM   13  C13 UNL     1      50.402  -0.919 107.821  1.00  0.00     0.000 C 
BRANCH  13  14
HETATM   14  C14 UNL     1      50.486   0.461 108.475  1.00  0.00     0.002 C 
BRANCH  14  15
HETATM   15  C15 UNL     1      51.849   0.868 109.053  1.00  0.00     0.032 C 
BRANCH  15  16
HETATM   16  C16 UNL     1      52.431   2.218 108.597  1.00  0.00     0.127 C 
BRANCH  16  17
HETATM   17  C17 UNL     1      51.650   2.915 107.489  1.00  0.00     0.142 C 
BRANCH  17  18
HETATM   18  C18 UNL     1      52.412   4.076 106.912  1.00  0.00     0.260 C 
HETATM   19  O2  UNL     1      53.440   4.530 107.391  1.00  0.00    -0.265 OA
BRANCH  18  20
HETATM   20  O3  UNL     1      51.799   4.533 105.784  1.00  0.00    -0.326 OA
HETATM   21  C19 UNL     1      51.908   5.945 105.598  1.00  0.00     0.213 C 
ENDBRANCH  18  20
ENDBRANCH  17  18
ENDBRANCH  16  17
BRANCH  16  22
HETATM   22  O1  UNL     1      52.531   3.093 109.721  1.00  0.00    -0.395 OA
HETATM   23  H35 UNL     1      52.735   3.985 109.390  1.00  0.00     0.210 HD
ENDBRANCH  16  22
ENDBRANCH  15  16
ENDBRANCH  14  15
ENDBRANCH  13  14
ENDBRANCH   1  13
TORSDOF 18
ENDMDL
