MODEL 1
REMARK VINA RESULT:      -5.1      0.000      0.000
REMARK  21 active torsions:
REMARK  status: ('A' for Active; 'I' for Inactive)
REMARK    1  A    between atoms: C1_1  and  C2_2 
REMARK    2  A    between atoms: C1_1  and  C10_10 
REMARK    3  A    between atoms: C2_2  and  C3_3 
REMARK    4  A    between atoms: C3_3  and  C4_4 
REMARK    5  A    between atoms: C4_4  and  C5_5 
REMARK    6  A    between atoms: C5_5  and  C6_6 
REMARK    7  A    between atoms: C6_6  and  C7_7 
REMARK    8  A    between atoms: C7_7  and  C8_8 
REMARK    9  A    between atoms: C8_8  and  C9_9 
REMARK   10  A    between atoms: C9_9  and  C20_21 
REMARK   11  A    between atoms: C10_10  and  C11_11 
REMARK   12  A    between atoms: C11_11  and  C12_12 
REMARK   13  A    between atoms: C12_12  and  C13_13 
REMARK   14  A    between atoms: C13_13  and  C14_14 
REMARK   15  A    between atoms: C14_14  and  C15_15 
REMARK   16  A    between atoms: C15_15  and  C16_16 
REMARK   17  A    between atoms: C16_16  and  C17_17 
REMARK   18  A    between atoms: C17_17  and  C18_18 
REMARK   19  A    between atoms: C18_18  and  C19_19 
REMARK   20  A    between atoms: C19_19  and  O1_20 
REMARK   21  A    between atoms: C20_21  and  O3_23 
ROOT
HETATM    1  C1  UNL     1      50.439   1.151 104.629  1.00  0.00     0.000 C 
ENDROOT
BRANCH   1   2
HETATM    2  C2  UNL     1      49.708   0.214 105.595  1.00  0.00     0.000 C 
BRANCH   2   3
HETATM    3  C3  UNL     1      50.637  -0.886 106.111  1.00  0.00     0.000 C 
BRANCH   3   4
HETATM    4  C4  UNL     1      50.654  -0.999 107.639  1.00  0.00     0.000 C 
BRANCH   4   5
HETATM    5  C5  UNL     1      50.312   0.314 108.348  1.00  0.00     0.000 C 
BRANCH   5   6
HETATM    6  C6  UNL     1      51.351   0.651 109.420  1.00  0.00     0.000 C 
BRANCH   6   7
HETATM    7  C7  UNL     1      52.192   1.888 109.090  1.00  0.00     0.001 C 
BRANCH   7   8
HETATM    8  C8  UNL     1      51.799   2.555 107.766  1.00  0.00     0.010 C 
BRANCH   8   9
HETATM    9  C9  UNL     1      53.018   2.938 106.926  1.00  0.00     0.110 C 
BRANCH   9  10
HETATM   10  C20 UNL     1      52.937   4.340 106.382  1.00  0.00     0.139 C 
HETATM   11  O2  UNL     1      52.009   4.856 105.788  1.00  0.00    -0.650 OA
BRANCH  10  12
HETATM   12  O3  UNL     1      54.076   5.026 106.598  1.00  0.00    -0.776 OA
HETATM   13  H40 UNL     1      54.725   4.334 106.840  1.00  0.00     0.167 HD
ENDBRANCH  10  12
ENDBRANCH   9  10
ENDBRANCH   8   9
ENDBRANCH   7   8
ENDBRANCH   6   7
ENDBRANCH   5   6
ENDBRANCH   4   5
ENDBRANCH   3   4
ENDBRANCH   2   3
ENDBRANCH   1   2
BRANCH   1  14
HETATM   14  C10 UNL     1      49.777   2.530 104.592  1.00  0.00     0.000 C 
BRANCH  14  15
HETATM   15  C11 UNL     1      48.290   2.504 104.959  1.00  0.00     0.000 C 
BRANCH  15  16
HETATM   16  C12 UNL     1      47.314   2.697 103.794  1.00  0.00     0.000 C 
BRANCH  16  17
HETATM   17  C13 UNL     1      47.305   1.582 102.743  1.00  0.00     0.000 C 
BRANCH  17  18
HETATM   18  C14 UNL     1      47.760   1.989 101.337  1.00  0.00     0.000 C 
BRANCH  18  19
HETATM   19  C15 UNL     1      49.265   1.815 101.113  1.00  0.00     0.000 C 
BRANCH  19  20
HETATM   20  C16 UNL     1      49.912   3.036 100.448  1.00  0.00     0.000 C 
BRANCH  20  21
HETATM   21  C17 UNL     1      49.422   4.388 100.978  1.00  0.00     0.002 C 
BRANCH  21  22
HETATM   22  C18 UNL     1      50.496   5.469 101.035  1.00  0.00     0.026 C 
BRANCH  22  23
HETATM   23  C19 UNL     1      50.326   6.365 102.255  1.00  0.00     0.164 C 
BRANCH  23  24
HETATM   24  O1  UNL     1      50.761   5.658 103.408  1.00  0.00    -0.401 OA
HETATM   25  H39 UNL     1      51.732   5.617 103.370  1.00  0.00     0.209 HD
ENDBRANCH  23  24
ENDBRANCH  22  23
ENDBRANCH  21  22
ENDBRANCH  20  21
ENDBRANCH  19  20
ENDBRANCH  18  19
ENDBRANCH  17  18
ENDBRANCH  16  17
ENDBRANCH  15  16
ENDBRANCH  14  15
ENDBRANCH   1  14
TORSDOF 21
ENDMDL
