MODEL 1
REMARK VINA RESULT:      -6.7      0.000      0.000
REMARK  4 active torsions:
REMARK  status: ('A' for Active; 'I' for Inactive)
REMARK    1  A    between atoms: C3_3  and  N1_7 
REMARK    2  A    between atoms: C6_6  and  N2_9 
REMARK    3  A    between atoms: C12_18  and  C14_21 
REMARK    4  A    between atoms: C14_21  and  O3_22 
ROOT
HETATM    1  C1  UNL     1      49.279   3.319 104.017  1.00  0.00     0.145 A 
HETATM    2  C2  UNL     1      49.988   3.595 105.192  1.00  0.00     0.074 A 
HETATM    3  C3  UNL     1      50.790   2.623 105.796  1.00  0.00     0.042 A 
HETATM    4  C4  UNL     1      50.845   1.371 105.177  1.00  0.00     0.032 A 
HETATM    5  C5  UNL     1      50.130   1.100 103.997  1.00  0.00     0.035 A 
HETATM    6  C6  UNL     1      49.327   2.069 103.376  1.00  0.00     0.074 A 
HETATM    7  F1  UNL     1      48.498   4.300 103.538  1.00  0.00    -0.204 F 
ENDROOT
BRANCH   3   8
HETATM    8  N1  UNL     1      51.503   2.909 106.989  1.00  0.00    -0.291 N 
HETATM    9  C11 UNL     1      52.090   4.116 107.348  1.00  0.00     0.368 C 
HETATM   10  O1  UNL     1      52.644   4.010 108.598  1.00  0.00    -0.294 OA
HETATM   11  O2  UNL     1      52.133   5.163 106.722  1.00  0.00    -0.238 OA
HETATM   12  C12 UNL     1      52.622   2.629 108.988  1.00  0.00     0.175 C 
HETATM   13  C13 UNL     1      51.582   1.999 108.094  1.00  0.00     0.169 C 
BRANCH  12  14
HETATM   14  C14 UNL     1      52.281   2.530 110.468  1.00  0.00     0.198 C 
BRANCH  14  15
HETATM   15  O3  UNL     1      52.723   3.702 111.148  1.00  0.00    -0.398 OA
HETATM   16  H17 UNL     1      53.619   3.513 111.485  1.00  0.00     0.209 HD
ENDBRANCH  14  15
ENDBRANCH  12  14
ENDBRANCH   3   8
BRANCH   6  17
HETATM   17  N2  UNL     1      48.619   1.799 102.190  1.00  0.00    -0.337 N 
HETATM   18  C7  UNL     1      49.183   1.799 100.928  1.00  0.00     0.226 C 
HETATM   19  N3  UNL     1      48.623   1.513  99.789  1.00  0.00    -0.194 NA
HETATM   20  N4  UNL     1      47.311   1.132  99.841  1.00  0.00    -0.210 NA
HETATM   21  C8  UNL     1      46.498   1.608 100.971  1.00  0.00     0.135 C 
HETATM   22  C10 UNL     1      46.583   1.257  98.580  1.00  0.00     0.138 C 
HETATM   23  C9  UNL     1      47.238   1.310 102.283  1.00  0.00     0.146 C 
ENDBRANCH   6  17
TORSDOF 4
ENDMDL
