MODEL 1
REMARK VINA RESULT:      -7.1      0.000      0.000
REMARK  5 active torsions:
REMARK  status: ('A' for Active; 'I' for Inactive)
REMARK    1  A    between atoms: C2_2  and  C10_10 
REMARK    2  A    between atoms: C11_11  and  O3_20 
REMARK    3  A    between atoms: O3_20  and  C18_21 
REMARK    4  A    between atoms: C18_21  and  C19_23 
REMARK    5  A    between atoms: C19_23  and  C20_24 
ROOT
HETATM    1  C10 UNL     1      52.204   2.974 107.223  1.00  0.00     0.083 A 
HETATM    2  C11 UNL     1      51.528   2.005 106.604  1.00  0.00     0.109 A 
HETATM    3  C12 UNL     1      51.119   0.926 107.540  1.00  0.00     0.121 A 
HETATM    4  O1  UNL     1      51.611   1.425 108.813  1.00  0.00    -0.299 OA
HETATM    5  C13 UNL     1      52.273   2.600 108.640  1.00  0.00     0.298 A 
HETATM    6  C14 UNL     1      49.618   0.693 107.726  1.00  0.00     0.046 C 
HETATM    7  C15 UNL     1      49.564  -0.685 108.378  1.00  0.00     0.004 C 
HETATM    8  C16 UNL     1      50.650  -1.470 107.659  1.00  0.00     0.004 C 
HETATM    9  C17 UNL     1      51.763  -0.459 107.360  1.00  0.00     0.046 C 
HETATM   10  O2  UNL     1      52.815   3.231 109.527  1.00  0.00    -0.259 OA
ENDROOT
BRANCH   1  11
HETATM   11  C2  UNL     1      52.745   4.198 106.632  1.00  0.00    -0.005 A 
HETATM   12  C1  UNL     1      51.941   5.356 106.536  1.00  0.00    -0.050 A 
HETATM   13  C6  UNL     1      52.487   6.533 106.000  1.00  0.00     0.014 A 
HETATM   14  C7  UNL     1      50.508   5.370 107.004  1.00  0.00     0.049 C 
HETATM   15  C5  UNL     1      53.806   6.575 105.542  1.00  0.00    -0.061 A 
HETATM   16  C4  UNL     1      54.599   5.428 105.647  1.00  0.00     0.014 A 
HETATM   17  C8  UNL     1      54.382   7.847 104.993  1.00  0.00     0.048 C 
HETATM   18  C3  UNL     1      54.086   4.236 106.187  1.00  0.00    -0.050 A 
HETATM   19  C9  UNL     1      54.986   3.031 106.264  1.00  0.00     0.049 C 
ENDBRANCH   1  11
BRANCH   2  20
HETATM   20  O3  UNL     1      51.220   2.092 105.223  1.00  0.00    -0.279 OA
BRANCH  20  21
HETATM   21  C18 UNL     1      50.059   2.559 104.671  1.00  0.00     0.264 C 
HETATM   22  O4  UNL     1      49.859   3.699 104.286  1.00  0.00    -0.265 OA
BRANCH  21  23
HETATM   23  C19 UNL     1      49.065   1.412 104.627  1.00  0.00     0.119 C 
BRANCH  23  24
HETATM   24  C20 UNL     1      47.767   1.636 103.815  1.00  0.00    -0.043 C 
HETATM   25  C21 UNL     1      48.070   1.915 102.334  1.00  0.00     0.015 C 
HETATM   26  C22 UNL     1      46.924   2.780 104.404  1.00  0.00     0.015 C 
HETATM   27  C23 UNL     1      46.933   0.339 103.896  1.00  0.00     0.015 C 
ENDBRANCH  23  24
ENDBRANCH  21  23
ENDBRANCH  20  21
ENDBRANCH   2  20
TORSDOF 5
ENDMDL
