MODEL 1
REMARK VINA RESULT:      -8.7      0.000      0.000
REMARK  8 active torsions:
REMARK  status: ('A' for Active; 'I' for Inactive)
REMARK    1  A    between atoms: C3_3  and  C25_32 
REMARK    2  A    between atoms: N1_7  and  C10_13 
REMARK    3  A    between atoms: C7_8  and  O1_10 
REMARK    4  A    between atoms: O1_10  and  C8_11 
REMARK    5  A    between atoms: C10_13  and  C11_14 
REMARK    6  A    between atoms: C14_17  and  C17_20 
REMARK    7  A    between atoms: C18_21  and  C23_26 
REMARK    8  A    between atoms: C25_32  and  O4_33 
ROOT
HETATM    1  C11 UNL     1      48.486   1.889 103.664  1.00  0.00    -0.040 A 
HETATM    2  C12 UNL     1      49.808   1.423 103.643  1.00  0.00     0.010 A 
HETATM    3  C13 UNL     1      50.574   1.385 104.812  1.00  0.00     0.013 A 
HETATM    4  C14 UNL     1      50.036   1.798 106.038  1.00  0.00    -0.025 A 
HETATM    5  C15 UNL     1      48.716   2.268 106.061  1.00  0.00     0.013 A 
HETATM    6  C16 UNL     1      47.949   2.307 104.892  1.00  0.00     0.010 A 
ENDROOT
BRANCH   1   7
HETATM    7  C10 UNL     1      47.589   1.879 102.445  1.00  0.00     0.171 C 
BRANCH   7   8
HETATM    8  N1  UNL     1      48.227   2.344 101.222  1.00  0.00    -0.304 N 
HETATM    9  C4  UNL     1      48.880   3.539 100.986  1.00  0.00     0.084 A 
HETATM   10  C3  UNL     1      49.071   4.750 101.682  1.00  0.00     0.067 A 
HETATM   11  C5  UNL     1      49.475   3.337  99.734  1.00  0.00     0.089 A 
HETATM   12  C2  UNL     1      49.917   5.719 101.110  1.00  0.00     0.021 A 
HETATM   13  C1  UNL     1      50.519   5.514  99.871  1.00  0.00     0.003 A 
HETATM   14  C6  UNL     1      50.293   4.330  99.169  1.00  0.00     0.034 A 
HETATM   15  N2  UNL     1      49.157   2.111  99.213  1.00  0.00    -0.206 NA
HETATM   16  C7  UNL     1      48.414   1.536 100.125  1.00  0.00     0.249 A 
BRANCH  10  17
HETATM   17  C25 UNL     1      48.429   5.103 102.954  1.00  0.00     0.178 C 
HETATM   18  O5  UNL     1      47.234   5.126 103.171  1.00  0.00    -0.646 OA
BRANCH  17  19
HETATM   19  O4  UNL     1      49.340   5.310 103.914  1.00  0.00    -0.773 OA
HETATM   20  H20 UNL     1      49.138   6.195 104.291  1.00  0.00     0.167 HD
ENDBRANCH  17  19
ENDBRANCH  10  17
BRANCH  16  21
HETATM   21  O1  UNL     1      47.908   0.306 100.058  1.00  0.00    -0.321 OA
BRANCH  21  22
HETATM   22  C8  UNL     1      46.776   0.149  99.204  1.00  0.00     0.174 C 
HETATM   23  C9  UNL     1      45.514  -0.081 100.018  1.00  0.00     0.034 C 
ENDBRANCH  21  22
ENDBRANCH  16  21
ENDBRANCH   7   8
ENDBRANCH   1   7
BRANCH   4  24
HETATM   24  C17 UNL     1      50.837   1.735 107.266  1.00  0.00    -0.012 A 
HETATM   25  C18 UNL     1      51.753   2.736 107.646  1.00  0.00     0.023 A 
HETATM   26  C19 UNL     1      52.518   2.600 108.816  1.00  0.00     0.016 A 
HETATM   27  C20 UNL     1      52.378   1.466 109.618  1.00  0.00     0.001 A 
HETATM   28  C21 UNL     1      51.476   0.469 109.258  1.00  0.00     0.001 A 
HETATM   29  C22 UNL     1      50.714   0.604 108.096  1.00  0.00     0.013 A 
BRANCH  25  30
HETATM   30  C23 UNL     1      51.928   3.963 106.851  1.00  0.00     0.171 A 
HETATM   31  N3  UNL     1      51.031   4.858 106.609  1.00  0.00    -0.104 NA
HETATM   32  O2  UNL     1      51.690   5.832 105.792  1.00  0.00    -0.153 OA
HETATM   33  C24 UNL     1      52.975   5.380 105.618  1.00  0.00     0.390 A 
HETATM   34  N4  UNL     1      53.120   4.234 106.299  1.00  0.00    -0.283 N 
HETATM   35  O3  UNL     1      53.838   5.925 104.951  1.00  0.00    -0.236 OA
HETATM   36  H19 UNL     1      53.960   3.685 106.292  1.00  0.00     0.172 HD
ENDBRANCH  25  30
ENDBRANCH   4  24
TORSDOF 8
ENDMDL
