MODEL 1
REMARK VINA RESULT:      -9.3      0.000      0.000
REMARK  4 active torsions:
REMARK  status: ('A' for Active; 'I' for Inactive)
REMARK    1  A    between atoms: C4_4  and  C8_8 
REMARK       I    between atoms: C8_8  and  N1_9 
REMARK    2  A    between atoms: N1_9  and  C9_11 
REMARK    3  A    between atoms: C12_14  and  C16_18 
REMARK       I    between atoms: C16_18  and  N2_20 
REMARK    4  A    between atoms: C19_23  and  O3_32 
ROOT
HETATM    1  C9  UNL     1      48.906   2.270 104.325  1.00  0.00     0.035 A 
HETATM    2  C10 UNL     1      49.630   1.976 103.159  1.00  0.00     0.037 A 
HETATM    3  C11 UNL     1      49.029   2.040 101.891  1.00  0.00    -0.044 A 
HETATM    4  C12 UNL     1      47.678   2.407 101.810  1.00  0.00     0.038 A 
HETATM    5  C13 UNL     1      46.942   2.675 102.968  1.00  0.00     0.020 A 
HETATM    6  C14 UNL     1      47.558   2.614 104.219  1.00  0.00     0.030 A 
HETATM    7  C15 UNL     1      49.826   1.692 100.666  1.00  0.00     0.049 C 
ENDROOT
BRANCH   4   8
HETATM    8  C16 UNL     1      46.982   2.486 100.504  1.00  0.00     0.259 C 
HETATM    9  O2  UNL     1      47.163   3.525  99.871  1.00  0.00    -0.267 OA
HETATM   10  N2  UNL     1      46.224   1.376 100.078  1.00  0.00    -0.313 N 
HETATM   11  C17 UNL     1      45.485   1.455  98.848  1.00  0.00     0.046 A 
HETATM   12  C22 UNL     1      45.807   0.306 101.000  1.00  0.00     0.133 C 
HETATM   13  C18 UNL     1      45.403   0.374  97.945  1.00  0.00    -0.001 A 
HETATM   14  C23 UNL     1      44.787   2.645  98.555  1.00  0.00     0.032 A 
HETATM   15  C19 UNL     1      46.166  -0.930  98.041  1.00  0.00     0.153 C 
HETATM   16  C26 UNL     1      44.596   0.522  96.788  1.00  0.00     0.035 A 
HETATM   17  C20 UNL     1      46.968  -1.216  99.311  1.00  0.00     0.038 C 
HETATM   18  C21 UNL     1      46.089  -1.128 100.546  1.00  0.00     0.023 C 
HETATM   19  C25 UNL     1      43.906   1.703  96.526  1.00  0.00     0.034 A 
HETATM   20  C24 UNL     1      44.002   2.770  97.406  1.00  0.00     0.026 A 
HETATM   21 CL1  UNL     1      42.943   1.837  95.108  1.00  0.00    -0.084 Cl
BRANCH  15  22
HETATM   22  O3  UNL     1      47.052  -1.000  96.916  1.00  0.00    -0.391 OA
HETATM   23  H25 UNL     1      46.763  -0.345  96.257  1.00  0.00     0.210 HD
ENDBRANCH  15  22
ENDBRANCH   4   8
BRANCH   1  24
HETATM   24  N1  UNL     1      49.598   2.178 105.550  1.00  0.00    -0.323 N 
HETATM   25  C8  UNL     1      50.462   1.177 105.952  1.00  0.00     0.256 C 
HETATM   26  O1  UNL     1      50.734   0.141 105.361  1.00  0.00    -0.267 OA
HETATM   27  H8  UNL     1      49.415   2.911 106.223  1.00  0.00     0.169 HD
BRANCH  25  28
HETATM   28  C4  UNL     1      51.065   1.407 107.291  1.00  0.00     0.038 A 
HETATM   29  C3  UNL     1      50.884   0.519 108.371  1.00  0.00    -0.046 A 
HETATM   30  C2  UNL     1      51.530   0.807 109.584  1.00  0.00     0.007 A 
HETATM   31  C7  UNL     1      50.034  -0.719 108.278  1.00  0.00     0.049 C 
HETATM   32  C1  UNL     1      52.298   1.965 109.731  1.00  0.00     0.001 A 
HETATM   33  C6  UNL     1      52.437   2.855 108.667  1.00  0.00     0.001 A 
HETATM   34  C5  UNL     1      51.820   2.578 107.450  1.00  0.00     0.017 A 
ENDBRANCH  25  28
ENDBRANCH   1  24
TORSDOF 4
ENDMDL
