MODEL 1
REMARK VINA RESULT:      -6.2      0.000      0.000
REMARK  17 active torsions:
REMARK  status: ('A' for Active; 'I' for Inactive)
REMARK    1  A    between atoms: C1_1  and  C2_2 
REMARK    2  A    between atoms: C1_1  and  C3_3 
REMARK    3  A    between atoms: C2_2  and  O3_6 
REMARK    4  A    between atoms: C2_2  and  C4_7 
REMARK    5  A    between atoms: C3_3  and  O1_4 
REMARK    6  A    between atoms: O3_6  and  C8_12 
REMARK    7  A    between atoms: C4_7  and  N1_8 
REMARK    8  A    between atoms: C8_12  and  C9_13 
REMARK    9  A    between atoms: C9_13  and  C10_15 
REMARK   10  A    between atoms: C14_19  and  C15_20 
REMARK   11  A    between atoms: C15_20  and  C16_21 
REMARK   12  A    between atoms: C16_21  and  C17_22 
REMARK   13  A    between atoms: C17_22  and  C18_23 
REMARK   14  A    between atoms: C18_23  and  C19_24 
REMARK   15  A    between atoms: C19_24  and  C20_25 
REMARK   16  A    between atoms: C20_25  and  C21_26 
REMARK   17  A    between atoms: C21_26  and  C22_27 
ROOT
HETATM    1  C10 UNL     1      46.203  -1.086 102.494  1.00  0.00     0.010 C 
HETATM    2  C11 UNL     1      45.821   0.072 101.567  1.00  0.00     0.000 C 
HETATM    3  C12 UNL     1      46.947   1.084 101.325  1.00  0.00     0.000 C 
HETATM    4  C13 UNL     1      46.993   2.256 102.309  1.00  0.00     0.000 C 
HETATM    5  C14 UNL     1      47.488   1.988 103.733  1.00  0.00     0.000 C 
HETATM    6 CL1  UNL     1      46.705   0.125 103.689  1.00  0.00     0.000 Cl
ENDROOT
BRANCH   1   7
HETATM    7  C9  UNL     1      45.095  -2.134 102.609  1.00  0.00     0.111 C 
BRANCH   7   8
HETATM    8  C8  UNL     1      45.570  -3.425 103.231  1.00  0.00     0.259 C 
HETATM    9  O4  UNL     1      46.135  -3.547 104.308  1.00  0.00    -0.265 OA
BRANCH   8  10
HETATM   10  O3  UNL     1      45.323  -4.472 102.390  1.00  0.00    -0.314 OA
BRANCH  10  11
HETATM   11  C2  UNL     1      44.569  -5.575 102.956  1.00  0.00     0.167 C 
BRANCH  11  12
HETATM   12  C1  UNL     1      43.543  -5.982 101.887  1.00  0.00     0.144 C 
BRANCH  12  13
HETATM   13  C3  UNL     1      42.246  -5.254 102.090  1.00  0.00     0.141 C 
HETATM   14  O2  UNL     1      41.221  -5.717 102.559  1.00  0.00    -0.650 OA
BRANCH  13  15
HETATM   15  O1  UNL     1      42.304  -3.992 101.633  1.00  0.00    -0.776 OA
HETATM   16  H4  UNL     1      42.832  -3.491 102.292  1.00  0.00     0.167 HD
ENDBRANCH  13  15
ENDBRANCH  12  13
ENDBRANCH  11  12
BRANCH  11  17
HETATM   17  C4  UNL     1      45.512  -6.761 103.295  1.00  0.00     0.268 C 
BRANCH  17  18
HETATM   18  N1  UNL     1      45.601  -7.123 104.803  1.00  0.00    -0.076 N 
HETATM   19  C5  UNL     1      45.339  -8.597 105.066  1.00  0.00     0.271 C 
HETATM   20  C6  UNL     1      44.623  -6.275 105.627  1.00  0.00     0.271 C 
HETATM   21  C7  UNL     1      47.018  -6.789 105.282  1.00  0.00     0.271 C 
ENDBRANCH  17  18
ENDBRANCH  11  17
ENDBRANCH  10  11
ENDBRANCH   8  10
ENDBRANCH   7   8
ENDBRANCH   1   7
BRANCH   5  22
HETATM   22  C15 UNL     1      48.989   1.698 103.862  1.00  0.00     0.000 C 
BRANCH  22  23
HETATM   23  C16 UNL     1      49.624   2.230 105.149  1.00  0.00     0.000 C 
BRANCH  23  24
HETATM   24  C17 UNL     1      50.815   1.395 105.632  1.00  0.00     0.000 C 
BRANCH  24  25
HETATM   25  C18 UNL     1      50.626  -0.111 105.437  1.00  0.00     0.000 C 
BRANCH  25  26
HETATM   26  C19 UNL     1      49.728  -0.702 106.526  1.00  0.00     0.000 C 
BRANCH  26  27
HETATM   27  C20 UNL     1      50.472  -1.011 107.829  1.00  0.00     0.000 C 
BRANCH  27  28
HETATM   28  C21 UNL     1      50.547   0.133 108.845  1.00  0.00    -0.000 C 
BRANCH  28  29
HETATM   29  C22 UNL     1      51.975   0.581 109.155  1.00  0.00    -0.005 C 
HETATM   30  C23 UNL     1      52.005   1.996 109.711  1.00  0.00     0.005 C 
ENDBRANCH  28  29
ENDBRANCH  27  28
ENDBRANCH  26  27
ENDBRANCH  25  26
ENDBRANCH  24  25
ENDBRANCH  23  24
ENDBRANCH  22  23
ENDBRANCH   5  22
TORSDOF 17
ENDMDL
