MODEL 1
REMARK VINA RESULT:      -7.4      0.000      0.000
REMARK  14 active torsions:
REMARK  status: ('A' for Active; 'I' for Inactive)
REMARK    1  A    between atoms: C1_1  and  C6_7 
REMARK    2  A    between atoms: C2_3  and  O3_9 
REMARK    3  A    between atoms: C3_4  and  O7_27 
REMARK    4  A    between atoms: C4_5  and  O9_29 
REMARK    5  A    between atoms: C5_6  and  O8_28 
REMARK    6  A    between atoms: C6_7  and  O2_8 
REMARK    7  A    between atoms: O3_9  and  C7_10 
REMARK    8  A    between atoms: C7_10  and  C8_11 
REMARK    9  A    between atoms: C9_12  and  O10_30 
REMARK   10  A    between atoms: C10_13  and  O6_26 
REMARK   11  A    between atoms: C11_14  and  O11_31 
REMARK   12  A    between atoms: C12_15  and  O5_17 
REMARK   13  A    between atoms: O5_17  and  C13_18 
REMARK   14  A    between atoms: C13_18  and  C14_19 
ROOT
HETATM    1  C13 UNL     1      50.630   2.388 105.648  1.00  0.00     0.264 C 
HETATM    2  C15 UNL     1      50.958   3.824 105.821  1.00  0.00     0.096 C 
HETATM    3  N1  UNL     1      51.218   4.952 105.939  1.00  0.00    -0.194 NA
ENDROOT
BRANCH   1   4
HETATM    4  O5  UNL     1      49.279   2.260 105.192  1.00  0.00    -0.334 OA
BRANCH   4   5
HETATM    5  C12 UNL     1      49.180   1.771 103.852  1.00  0.00     0.293 C 
HETATM    6  C11 UNL     1      47.695   1.469 103.575  1.00  0.00     0.204 C 
HETATM    7  C10 UNL     1      47.497   1.116 102.105  1.00  0.00     0.183 C 
HETATM    8  C9  UNL     1      48.094   2.188 101.190  1.00  0.00     0.180 C 
HETATM    9  C8  UNL     1      49.560   2.450 101.572  1.00  0.00     0.180 C 
HETATM   10  O4  UNL     1      49.683   2.767 102.965  1.00  0.00    -0.348 OA
BRANCH   6  11
HETATM   11  O11 UNL     1      47.224   0.371 104.373  1.00  0.00    -0.388 OA
HETATM   12  H27 UNL     1      46.263   0.530 104.478  1.00  0.00     0.210 HD
ENDBRANCH   6  11
BRANCH   7  13
HETATM   13  O6  UNL     1      46.091   0.964 101.842  1.00  0.00    -0.390 OA
HETATM   14  H22 UNL     1      46.021   0.433 101.023  1.00  0.00     0.210 HD
ENDBRANCH   7  13
BRANCH   8  15
HETATM   15  O10 UNL     1      47.960   1.757  99.823  1.00  0.00    -0.390 OA
HETATM   16  H26 UNL     1      48.834   1.489  99.486  1.00  0.00     0.210 HD
ENDBRANCH   8  15
BRANCH   9  17
HETATM   17  C7  UNL     1      50.154   3.626 100.777  1.00  0.00     0.205 C 
BRANCH  17  18
HETATM   18  O3  UNL     1      49.252   4.735 100.836  1.00  0.00    -0.356 OA
BRANCH  18  19
HETATM   19  C2  UNL     1      49.921   5.984 101.064  1.00  0.00     0.291 C 
HETATM   20  O1  UNL     1      50.966   6.141 100.105  1.00  0.00    -0.348 OA
HETATM   21  C1  UNL     1      52.096   6.928 100.507  1.00  0.00     0.179 C 
HETATM   22  C5  UNL     1      51.814   7.904 101.664  1.00  0.00     0.180 C 
HETATM   23  C4  UNL     1      51.145   7.225 102.871  1.00  0.00     0.183 C 
HETATM   24  C3  UNL     1      50.455   5.914 102.498  1.00  0.00     0.204 C 
BRANCH  21  25
HETATM   25  C6  UNL     1      53.300   6.016 100.765  1.00  0.00     0.198 C 
BRANCH  25  26
HETATM   26  O2  UNL     1      54.354   6.340  99.866  1.00  0.00    -0.398 OA
HETATM   27  H8  UNL     1      55.190   6.268 100.365  1.00  0.00     0.209 HD
ENDBRANCH  25  26
ENDBRANCH  21  25
BRANCH  22  28
HETATM   28  O8  UNL     1      50.901   8.912 101.172  1.00  0.00    -0.390 OA
HETATM   29  H24 UNL     1      51.445   9.558 100.676  1.00  0.00     0.210 HD
ENDBRANCH  22  28
BRANCH  23  30
HETATM   30  O9  UNL     1      52.106   6.953 103.902  1.00  0.00    -0.390 OA
HETATM   31  H25 UNL     1      51.576   6.764 104.699  1.00  0.00     0.210 HD
ENDBRANCH  23  30
BRANCH  24  32
HETATM   32  O7  UNL     1      49.412   5.639 103.455  1.00  0.00    -0.388 OA
HETATM   33  H23 UNL     1      49.368   6.438 104.019  1.00  0.00     0.210 HD
ENDBRANCH  24  32
ENDBRANCH  18  19
ENDBRANCH  17  18
ENDBRANCH   9  17
ENDBRANCH   4   5
ENDBRANCH   1   4
BRANCH   1  34
HETATM   34  C14 UNL     1      50.829   1.616 106.944  1.00  0.00    -0.016 A 
HETATM   35  C16 UNL     1      51.730   2.085 107.913  1.00  0.00     0.011 A 
HETATM   36  C17 UNL     1      51.906   1.390 109.113  1.00  0.00     0.001 A 
HETATM   37  C18 UNL     1      51.189   0.224 109.358  1.00  0.00     0.000 A 
HETATM   38  C19 UNL     1      50.292  -0.256 108.403  1.00  0.00     0.001 A 
HETATM   39  C20 UNL     1      50.110   0.436 107.204  1.00  0.00     0.011 A 
ENDBRANCH   1  34
TORSDOF 14
ENDMDL
