MODEL 1
REMARK VINA RESULT:      -5.6      0.000      0.000
REMARK  20 active torsions:
REMARK  status: ('A' for Active; 'I' for Inactive)
REMARK    1  A    between atoms: C1_1  and  C2_2 
REMARK    2  A    between atoms: C1_1  and  C6_6 
REMARK    3  A    between atoms: C2_2  and  C3_3 
REMARK    4  A    between atoms: C3_3  and  C4_4 
REMARK    5  A    between atoms: C4_4  and  C7_7 
REMARK    6  A    between atoms: C5_5  and  C6_6 
REMARK    7  A    between atoms: C5_5  and  C10_10 
REMARK    8  A    between atoms: C7_7  and  C8_8 
REMARK    9  A    between atoms: C8_8  and  C11_11 
REMARK   10  A    between atoms: C9_9  and  C10_10 
REMARK   11  A    between atoms: C9_9  and  C14_14 
REMARK   12  A    between atoms: C11_11  and  C12_12 
REMARK   13  A    between atoms: C12_12  and  C19_19 
REMARK   14  A    between atoms: C13_13  and  C14_14 
REMARK   15  A    between atoms: C13_13  and  C15_15 
REMARK   16  A    between atoms: C15_15  and  C16_16 
REMARK   17  A    between atoms: C16_16  and  C17_17 
REMARK   18  A    between atoms: C17_17  and  C18_18 
REMARK   19  A    between atoms: C18_18  and  C21_21 
REMARK   20  A    between atoms: C21_21  and  O2_23 
ROOT
HETATM    1  C5  UNL     1      53.656   3.457 106.674  1.00  0.00     0.000 C 
ENDROOT
BRANCH   1   2
HETATM    2  C6  UNL     1      52.392   2.597 106.559  1.00  0.00     0.000 C 
BRANCH   2   3
HETATM    3  C1  UNL     1      51.127   3.413 106.286  1.00  0.00     0.000 C 
BRANCH   3   4
HETATM    4  C2  UNL     1      49.956   2.567 105.771  1.00  0.00     0.000 C 
BRANCH   4   5
HETATM    5  C3  UNL     1      50.274   1.610 104.618  1.00  0.00     0.000 C 
BRANCH   5   6
HETATM    6  C4  UNL     1      50.811   0.253 105.079  1.00  0.00     0.000 C 
BRANCH   6   7
HETATM    7  C7  UNL     1      49.866  -0.402 106.090  1.00  0.00     0.000 C 
BRANCH   7   8
HETATM    8  C8  UNL     1      50.528  -0.675 107.445  1.00  0.00     0.000 C 
BRANCH   8   9
HETATM    9  C11 UNL     1      50.173   0.330 108.548  1.00  0.00     0.000 C 
BRANCH   9  10
HETATM   10  C12 UNL     1      51.041   0.218 109.801  1.00  0.00    -0.000 C 
BRANCH  10  11
HETATM   11  C19 UNL     1      52.368   0.975 109.684  1.00  0.00    -0.005 C 
HETATM   12  C20 UNL     1      52.281   2.425 110.131  1.00  0.00     0.005 C 
ENDBRANCH  10  11
ENDBRANCH   9  10
ENDBRANCH   8   9
ENDBRANCH   7   8
ENDBRANCH   6   7
ENDBRANCH   5   6
ENDBRANCH   4   5
ENDBRANCH   3   4
ENDBRANCH   2   3
ENDBRANCH   1   2
BRANCH   1  13
HETATM   13  C10 UNL     1      53.382   4.960 106.613  1.00  0.00     0.000 C 
BRANCH  13  14
HETATM   14  C9  UNL     1      54.397   5.671 105.715  1.00  0.00     0.000 C 
BRANCH  14  15
HETATM   15  C14 UNL     1      53.768   6.866 104.995  1.00  0.00     0.000 C 
BRANCH  15  16
HETATM   16  C13 UNL     1      52.352   6.539 104.517  1.00  0.00     0.000 C 
BRANCH  16  17
HETATM   17  C15 UNL     1      52.128   6.833 103.030  1.00  0.00     0.000 C 
BRANCH  17  18
HETATM   18  C16 UNL     1      50.694   6.654 102.522  1.00  0.00     0.000 C 
BRANCH  18  19
HETATM   19  C17 UNL     1      49.904   5.593 103.289  1.00  0.00     0.010 C 
BRANCH  19  20
HETATM   20  C18 UNL     1      49.426   4.478 102.359  1.00  0.00     0.111 C 
BRANCH  20  21
HETATM   21  C21 UNL     1      47.984   4.109 102.618  1.00  0.00     0.258 C 
HETATM   22  O1  UNL     1      47.184   4.775 103.258  1.00  0.00    -0.265 OA
BRANCH  21  23
HETATM   23  O2  UNL     1      47.710   2.910 102.028  1.00  0.00    -0.326 OA
HETATM   24  C22 UNL     1      48.773   2.408 101.217  1.00  0.00     0.213 C 
ENDBRANCH  21  23
ENDBRANCH  20  21
ENDBRANCH  19  20
ENDBRANCH  18  19
ENDBRANCH  17  18
ENDBRANCH  16  17
ENDBRANCH  15  16
ENDBRANCH  14  15
ENDBRANCH  13  14
ENDBRANCH   1  13
TORSDOF 20
ENDMDL
