MODEL 1
REMARK VINA RESULT:      -5.6      0.000      0.000
REMARK  27 active torsions:
REMARK  status: ('A' for Active; 'I' for Inactive)
REMARK    1  A    between atoms: O1_1  and  C1_2 
REMARK    2  A    between atoms: O1_1  and  C4_7 
REMARK    3  A    between atoms: C1_2  and  C2_3 
REMARK    4  A    between atoms: C2_3  and  C3_4 
REMARK    5  A    between atoms: C2_3  and  O3_6 
REMARK    6  A    between atoms: C3_4  and  O2_5 
REMARK    7  A    between atoms: O2_5  and  C16_20 
REMARK    8  A    between atoms: C4_7  and  C5_8 
REMARK    9  A    between atoms: C5_8  and  C6_10 
REMARK   10  A    between atoms: C6_10  and  C7_11 
REMARK   11  A    between atoms: C7_11  and  C8_12 
REMARK   12  A    between atoms: C8_12  and  C9_13 
REMARK   13  A    between atoms: C9_13  and  C10_14 
REMARK   14  A    between atoms: C10_14  and  C11_15 
REMARK   15  A    between atoms: C11_15  and  C12_16 
REMARK   16  A    between atoms: C12_16  and  C13_17 
REMARK   17  A    between atoms: C13_17  and  C14_18 
REMARK   18  A    between atoms: C16_20  and  C17_21 
REMARK   19  A    between atoms: C17_21  and  C18_23 
REMARK   20  A    between atoms: C18_23  and  C19_24 
REMARK   21  A    between atoms: C19_24  and  C20_25 
REMARK   22  A    between atoms: C20_25  and  C21_26 
REMARK   23  A    between atoms: C21_26  and  C22_27 
REMARK   24  A    between atoms: C22_27  and  C23_28 
REMARK   25  A    between atoms: C23_28  and  C24_29 
REMARK   26  A    between atoms: C24_29  and  C25_30 
REMARK   27  A    between atoms: C25_30  and  C26_31 
ROOT
HETATM    1  C2  UNL     1      53.156   6.364 104.617  1.00  0.00     0.166 C 
ENDROOT
BRANCH   1   2
HETATM    2  C1  UNL     1      52.240   5.814 105.714  1.00  0.00     0.212 C 
BRANCH   2   3
HETATM    3  O1  UNL     1      52.512   4.430 105.985  1.00  0.00    -0.319 OA
BRANCH   3   4
HETATM    4  C4  UNL     1      52.558   4.070 107.295  1.00  0.00     0.258 C 
HETATM    5  O4  UNL     1      52.366   4.824 108.240  1.00  0.00    -0.265 OA
BRANCH   4   6
HETATM    6  C5  UNL     1      52.831   2.593 107.441  1.00  0.00     0.111 C 
BRANCH   6   7
HETATM    7  C6  UNL     1      52.206   1.983 108.693  1.00  0.00     0.010 C 
BRANCH   7   8
HETATM    8  C7  UNL     1      51.099   0.974 108.365  1.00  0.00     0.000 C 
BRANCH   8   9
HETATM    9  C8  UNL     1      50.447   1.221 107.002  1.00  0.00     0.000 C 
BRANCH   9  10
HETATM   10  C9  UNL     1      50.085  -0.038 106.203  1.00  0.00     0.000 C 
BRANCH  10  11
HETATM   11  C10 UNL     1      50.398  -1.370 106.891  1.00  0.00     0.000 C 
BRANCH  11  12
HETATM   12  C11 UNL     1      49.190  -1.962 107.622  1.00  0.00     0.000 C 
BRANCH  12  13
HETATM   13  C12 UNL     1      48.470  -3.055 106.825  1.00  0.00     0.000 C 
BRANCH  13  14
HETATM   14  C13 UNL     1      47.256  -2.542 106.045  1.00  0.00    -0.000 C 
BRANCH  14  15
HETATM   15  C14 UNL     1      46.179  -3.609 105.835  1.00  0.00    -0.005 C 
HETATM   16  C15 UNL     1      46.682  -4.853 105.121  1.00  0.00     0.005 C 
ENDBRANCH  14  15
ENDBRANCH  13  14
ENDBRANCH  12  13
ENDBRANCH  11  12
ENDBRANCH  10  11
ENDBRANCH   9  10
ENDBRANCH   8   9
ENDBRANCH   7   8
ENDBRANCH   6   7
ENDBRANCH   4   6
ENDBRANCH   3   4
ENDBRANCH   2   3
ENDBRANCH   1   2
BRANCH   1  17
HETATM   17  C3  UNL     1      52.366   6.990 103.461  1.00  0.00     0.212 C 
BRANCH  17  18
HETATM   18  O2  UNL     1      51.156   6.230 103.265  1.00  0.00    -0.319 OA
BRANCH  18  19
HETATM   19  C16 UNL     1      50.819   5.941 101.979  1.00  0.00     0.258 C 
HETATM   20  O5  UNL     1      51.368   6.371 100.975  1.00  0.00    -0.265 OA
BRANCH  19  21
HETATM   21  C17 UNL     1      49.638   5.005 101.948  1.00  0.00     0.111 C 
BRANCH  21  22
HETATM   22  C18 UNL     1      49.001   4.809 103.321  1.00  0.00     0.010 C 
BRANCH  22  23
HETATM   23  C19 UNL     1      49.380   3.504 104.031  1.00  0.00     0.000 C 
BRANCH  23  24
HETATM   24  C20 UNL     1      48.189   2.575 104.282  1.00  0.00     0.000 C 
BRANCH  24  25
HETATM   25  C21 UNL     1      48.193   1.398 103.305  1.00  0.00     0.000 C 
BRANCH  25  26
HETATM   26  C22 UNL     1      47.206   1.561 102.144  1.00  0.00     0.000 C 
BRANCH  26  27
HETATM   27  C23 UNL     1      47.537   0.782 100.865  1.00  0.00     0.000 C 
BRANCH  27  28
HETATM   28  C24 UNL     1      46.777  -0.540 100.745  1.00  0.00     0.000 C 
BRANCH  28  29
HETATM   29  C25 UNL     1      45.466  -0.562 101.537  1.00  0.00    -0.000 C 
BRANCH  29  30
HETATM   30  C26 UNL     1      45.495  -1.507 102.739  1.00  0.00    -0.005 C 
HETATM   31  C27 UNL     1      44.976  -2.889 102.372  1.00  0.00     0.005 C 
ENDBRANCH  29  30
ENDBRANCH  28  29
ENDBRANCH  27  28
ENDBRANCH  26  27
ENDBRANCH  25  26
ENDBRANCH  24  25
ENDBRANCH  23  24
ENDBRANCH  22  23
ENDBRANCH  21  22
ENDBRANCH  19  21
ENDBRANCH  18  19
ENDBRANCH  17  18
ENDBRANCH   1  17
BRANCH   1  32
HETATM   32  O3  UNL     1      54.029   7.354 105.178  1.00  0.00    -0.391 OA
HETATM   33  H6  UNL     1      53.681   7.597 106.054  1.00  0.00     0.210 HD
ENDBRANCH   1  32
TORSDOF 27
ENDMDL
