MODEL 1
REMARK VINA RESULT:      -8.2      0.000      0.000
REMARK  1 active torsions:
REMARK  status: ('A' for Active; 'I' for Inactive)
REMARK    1  A    between atoms: C5_5  and  C6_6 
ROOT
HETATM    1  C1  UNL     1      49.023   3.266  99.748  1.00  0.00     0.001 A 
HETATM    2  C2  UNL     1      49.034   1.867  99.888  1.00  0.00     0.001 A 
HETATM    3  C3  UNL     1      48.607   1.260 101.073  1.00  0.00     0.011 A 
HETATM    4  C4  UNL     1      48.168   2.080 102.097  1.00  0.00    -0.007 A 
HETATM    5  C5  UNL     1      48.163   3.476 101.953  1.00  0.00    -0.016 A 
HETATM    6  C6  UNL     1      48.587   4.087 100.790  1.00  0.00     0.010 A 
HETATM    7  C7  UNL     1      47.676   1.766 103.500  1.00  0.00     0.210 A 
HETATM    8  C8  UNL     1      48.868   1.793 104.474  1.00  0.00    -0.009 A 
HETATM    9  C9  UNL     1      49.434   3.057 104.801  1.00  0.00    -0.047 A 
HETATM   10  C10 UNL     1      48.814   4.335 104.240  1.00  0.00     0.079 C 
HETATM   11  C11 UNL     1      47.659   4.067 103.244  1.00  0.00     0.260 A 
HETATM   12  C12 UNL     1      49.453   0.635 105.004  1.00  0.00     0.011 A 
HETATM   13  C13 UNL     1      50.559   0.726 105.853  1.00  0.00     0.001 A 
HETATM   14  C14 UNL     1      51.099   1.970 106.178  1.00  0.00     0.001 A 
HETATM   15  C15 UNL     1      50.540   3.135 105.655  1.00  0.00     0.008 A 
HETATM   16  N1  UNL     1      46.821   2.969 103.808  1.00  0.00     0.111 N 
HETATM   17  C16 UNL     1      46.795   0.516 103.568  1.00  0.00     0.060 C 
HETATM   18  C17 UNL     1      47.634   2.402 102.887  1.00  0.00     0.088 A 
HETATM   19  C18 UNL     1      48.715   2.906 102.031  1.00  0.00     0.165 A 
HETATM   20  O1  UNL     1      48.400   2.706 100.742  1.00  0.00    -0.773 OA
HETATM   21  C19 UNL     1      49.056   2.104 104.903  1.00  0.00     0.165 A 
HETATM   22  C20 UNL     1      47.783   2.086 104.179  1.00  0.00     0.088 A 
HETATM   23  O2  UNL     1      49.741   3.466 102.367  1.00  0.00    -0.647 OA
HETATM   24  O3  UNL     1      49.226   2.597 106.002  1.00  0.00    -0.647 OA
HETATM   25  O4  UNL     1      50.002   1.394 104.270  1.00  0.00    -0.773 OA
HETATM   26  H12 UNL     1      45.985   2.899 103.231  1.00  0.00     0.318 HD
HETATM   27  H17 UNL     1      49.168   3.070 100.254  1.00  0.00     0.167 HD
HETATM   28  H19 UNL     1      50.798   1.510 104.827  1.00  0.00     0.167 HD
ENDROOT
TORSDOF 1
ENDMDL
