MODEL 1
REMARK VINA RESULT:      -7.5      0.000      0.000
REMARK  10 active torsions:
REMARK  status: ('A' for Active; 'I' for Inactive)
REMARK    1  A    between atoms: C7_7  and  C9_10 
REMARK    2  A    between atoms: N1_9  and  C10_13 
REMARK       I    between atoms: C9_10  and  N2_11 
REMARK    3  A    between atoms: N2_11  and  C14_17 
REMARK    4  A    between atoms: C10_13  and  C11_14 
REMARK    5  A    between atoms: C11_14  and  C12_15 
REMARK    6  A    between atoms: C12_15  and  C13_16 
REMARK    7  A    between atoms: C13_16  and  C20_25 
REMARK    8  A    between atoms: C14_17  and  C15_18 
REMARK    9  A    between atoms: C14_17  and  C19_22 
REMARK   10  A    between atoms: C19_22  and  O2_23 
ROOT
HETATM    1  C1  UNL     1      52.219   2.270 108.736  1.00  0.00     0.030 A 
HETATM    2  C2  UNL     1      51.938   1.047 109.347  1.00  0.00     0.002 A 
HETATM    3  C3  UNL     1      51.054   0.148 108.765  1.00  0.00     0.001 A 
HETATM    4  C4  UNL     1      50.434   0.448 107.546  1.00  0.00     0.015 A 
HETATM    5  C5  UNL     1      50.716   1.668 106.888  1.00  0.00     0.008 A 
HETATM    6  C6  UNL     1      51.593   2.566 107.512  1.00  0.00     0.045 A 
HETATM    7  C7  UNL     1      50.279   2.275 105.660  1.00  0.00     0.060 A 
HETATM    8  C8  UNL     1      50.858   3.532 105.617  1.00  0.00     0.109 A 
HETATM    9  N1  UNL     1      51.655   3.689 106.716  1.00  0.00    -0.355 N 
ENDROOT
BRANCH   7  10
HETATM   10  C9  UNL     1      49.391   1.776 104.616  1.00  0.00     0.254 C 
HETATM   11  N2  UNL     1      49.396   2.513 103.458  1.00  0.00    -0.342 N 
HETATM   12  H6  UNL     1      50.002   3.321 103.394  1.00  0.00     0.163 HD
HETATM   13  O1  UNL     1      48.659   0.805 104.782  1.00  0.00    -0.268 OA
BRANCH  11  14
HETATM   14  C14 UNL     1      48.672   2.110 102.252  1.00  0.00     0.190 C 
BRANCH  14  15
HETATM   15  C15 UNL     1      47.482   3.060 101.928  1.00  0.00    -0.021 C 
HETATM   16  C16 UNL     1      46.332   2.276 101.264  1.00  0.00     0.017 C 
HETATM   17  C17 UNL     1      46.934   3.671 103.237  1.00  0.00     0.017 C 
HETATM   18  C18 UNL     1      47.894   4.212 100.990  1.00  0.00     0.017 C 
ENDBRANCH  14  15
BRANCH  14  19
HETATM   19  C19 UNL     1      49.724   2.044 101.140  1.00  0.00     0.164 C 
HETATM   20  O3  UNL     1      50.815   2.597 101.147  1.00  0.00    -0.648 OA
BRANCH  19  21
HETATM   21  O2  UNL     1      49.347   1.297 100.085  1.00  0.00    -0.775 OA
HETATM   22  H25 UNL     1      50.006   1.504  99.391  1.00  0.00     0.167 HD
ENDBRANCH  19  21
ENDBRANCH  14  19
ENDBRANCH  11  14
ENDBRANCH   7  10
BRANCH   9  23
HETATM   23  C10 UNL     1      52.447   4.881 106.985  1.00  0.00     0.128 C 
BRANCH  23  24
HETATM   24  C11 UNL     1      53.856   4.777 106.404  1.00  0.00     0.020 C 
BRANCH  24  25
HETATM   25  C12 UNL     1      54.139   5.816 105.315  1.00  0.00     0.004 C 
BRANCH  25  26
HETATM   26  C13 UNL     1      53.007   6.828 105.130  1.00  0.00     0.031 C 
BRANCH  26  27
HETATM   27  C20 UNL     1      52.284   6.621 103.807  1.00  0.00     0.222 C 
HETATM   28  F1  UNL     1      52.616   7.628 102.957  1.00  0.00    -0.255 F 
ENDBRANCH  26  27
ENDBRANCH  25  26
ENDBRANCH  24  25
ENDBRANCH  23  24
ENDBRANCH   9  23
TORSDOF 10
ENDMDL
