MODEL 1
REMARK VINA RESULT:      -7.2      0.000      0.000
REMARK  6 active torsions:
REMARK  status: ('A' for Active; 'I' for Inactive)
REMARK    1  A    between atoms: C4_5  and  C14_18 
REMARK    2  A    between atoms: C5_6  and  C7_9 
REMARK    3  A    between atoms: C9_11  and  O4_16 
REMARK    4  A    between atoms: C10_12  and  O3_15 
REMARK    5  A    between atoms: C16_20  and  O6_25 
REMARK    6  A    between atoms: C17_21  and  O5_24 
ROOT
HETATM    1  O1  UNL     1      49.644   3.911 103.769  1.00  0.00    -0.380 OA
HETATM    2  C1  UNL     1      49.666   3.299 102.473  1.00  0.00     0.176 C 
HETATM    3  C2  UNL     1      49.017   1.942 102.607  1.00  0.00     0.052 C 
HETATM    4  C3  UNL     1      49.323   1.563 104.029  1.00  0.00     0.052 C 
HETATM    5  C4  UNL     1      49.309   2.911 104.751  1.00  0.00     0.161 C 
HETATM    6  C5  UNL     1      47.483   1.968 102.573  1.00  0.00     0.161 C 
HETATM    7  O2  UNL     1      47.029   1.184 103.701  1.00  0.00    -0.380 OA
HETATM    8  C6  UNL     1      48.171   0.665 104.393  1.00  0.00     0.176 C 
ENDROOT
BRANCH   5   9
HETATM    9  C14 UNL     1      50.277   2.950 105.915  1.00  0.00    -0.026 A 
HETATM   10  C15 UNL     1      50.445   1.806 106.719  1.00  0.00     0.049 A 
HETATM   11  C16 UNL     1      51.361   1.806 107.773  1.00  0.00     0.101 A 
HETATM   12  C17 UNL     1      52.106   2.965 108.020  1.00  0.00     0.099 A 
HETATM   13  C18 UNL     1      51.959   4.104 107.240  1.00  0.00     0.040 A 
HETATM   14  C19 UNL     1      51.045   4.095 106.188  1.00  0.00     0.012 A 
BRANCH  11  15
HETATM   15  O6  UNL     1      51.623   0.760 108.620  1.00  0.00    -0.353 OA
HETATM   16  C20 UNL     1      50.528  -0.082 108.954  1.00  0.00     0.210 C 
ENDBRANCH  11  15
BRANCH  12  17
HETATM   17  O5  UNL     1      53.007   2.999 109.050  1.00  0.00    -0.358 OA
HETATM   18  H19 UNL     1      53.881   2.940 108.617  1.00  0.00     0.217 HD
ENDBRANCH  12  17
ENDBRANCH   5   9
BRANCH   6  19
HETATM   19  C7  UNL     1      46.930   1.432 101.265  1.00  0.00    -0.026 A 
HETATM   20  C8  UNL     1      47.324   0.179 100.751  1.00  0.00     0.049 A 
HETATM   21  C9  UNL     1      46.822  -0.290  99.531  1.00  0.00     0.101 A 
HETATM   22  C10 UNL     1      45.924   0.515  98.815  1.00  0.00     0.099 A 
HETATM   23  C11 UNL     1      45.516   1.754  99.310  1.00  0.00     0.040 A 
HETATM   24  C12 UNL     1      46.015   2.207 100.531  1.00  0.00     0.012 A 
BRANCH  21  25
HETATM   25  O4  UNL     1      47.144  -1.492  98.961  1.00  0.00    -0.353 OA
HETATM   26  C13 UNL     1      47.150  -2.636  99.803  1.00  0.00     0.210 C 
ENDBRANCH  21  25
BRANCH  22  27
HETATM   27  O3  UNL     1      45.436   0.071  97.615  1.00  0.00    -0.358 OA
HETATM   28  H12 UNL     1      46.074   0.275  96.916  1.00  0.00     0.217 HD
ENDBRANCH  22  27
ENDBRANCH   6  19
TORSDOF 6
ENDMDL
