MODEL 1
REMARK VINA RESULT:      -7.7      0.000      0.000
REMARK  6 active torsions:
REMARK  status: ('A' for Active; 'I' for Inactive)
REMARK    1  A    between atoms: C2_2  and  C6_7 
REMARK    2  A    between atoms: C6_7  and  C7_8 
REMARK    3  A    between atoms: C6_7  and  N1_9 
REMARK    4  A    between atoms: C18_21  and  C27_31 
REMARK    5  A    between atoms: C21_24  and  C24_27 
REMARK    6  A    between atoms: C24_27  and  O2_29 
ROOT
HETATM    1  N1  UNL     1      50.728   7.987  97.737  1.00  0.00    -0.334 N 
HETATM    2  C13 UNL     1      51.404   8.995  98.415  1.00  0.00     0.049 A 
HETATM    3  C14 UNL     1      51.540   8.582  99.742  1.00  0.00     0.022 A 
HETATM    4  C15 UNL     1      50.940   7.302  99.855  1.00  0.00     0.096 A 
HETATM    5  C16 UNL     1      50.431   6.945  98.609  1.00  0.00     0.066 A 
HETATM    6  N2  UNL     1      50.838   6.514 100.957  1.00  0.00    -0.257 NA
HETATM    7  C17 UNL     1      50.203   5.339 100.763  1.00  0.00     0.131 A 
HETATM    8  C18 UNL     1      49.645   4.901  99.567  1.00  0.00     0.014 A 
HETATM    9  C19 UNL     1      49.767   5.721  98.442  1.00  0.00     0.047 A 
HETATM   10  C20 UNL     1      51.910  10.240  97.987  1.00  0.00     0.040 A 
HETATM   11  C21 UNL     1      52.565  11.084  98.901  1.00  0.00    -0.023 A 
HETATM   12  C22 UNL     1      52.686  10.665 100.235  1.00  0.00     0.011 A 
HETATM   13  C23 UNL     1      52.189   9.428 100.660  1.00  0.00     0.017 A 
ENDROOT
BRANCH   1  14
HETATM   14  C6  UNL     1      50.341   7.998  96.310  1.00  0.00     0.127 C 
BRANCH  14  15
HETATM   15  C2  UNL     1      49.315   9.125  95.944  1.00  0.00     0.017 C 
HETATM   16  C1  UNL     1      48.100   9.186  96.896  1.00  0.00     0.033 C 
HETATM   17  C5  UNL     1      47.043   8.144  96.553  1.00  0.00     0.168 C 
HETATM   18  O1  UNL     1      46.688   8.092  95.169  1.00  0.00    -0.391 OA
HETATM   19  C4  UNL     1      47.314   9.078  94.355  1.00  0.00     0.168 C 
HETATM   20  C3  UNL     1      48.827   8.970  94.482  1.00  0.00     0.033 C 
ENDBRANCH  14  15
BRANCH  14  21
HETATM   21  C7  UNL     1      51.594   7.878  95.436  1.00  0.00    -0.035 A 
HETATM   22  C8  UNL     1      52.290   8.982  94.924  1.00  0.00     0.009 A 
HETATM   23  C9  UNL     1      53.428   8.812  94.129  1.00  0.00     0.001 A 
HETATM   24  C10 UNL     1      53.890   7.532  93.831  1.00  0.00     0.000 A 
HETATM   25  C11 UNL     1      53.220   6.422  94.333  1.00  0.00     0.001 A 
HETATM   26  C12 UNL     1      52.084   6.592  95.130  1.00  0.00     0.009 A 
ENDBRANCH  14  21
ENDBRANCH   1  14
BRANCH  11  27
HETATM   27  C24 UNL     1      53.124  12.451  98.494  1.00  0.00     0.078 C 
HETATM   28  C25 UNL     1      51.980  13.398  98.114  1.00  0.00     0.051 C 
HETATM   29  C26 UNL     1      54.150  12.416  97.354  1.00  0.00     0.051 C 
BRANCH  27  30
HETATM   30  O2  UNL     1      53.807  13.024  99.618  1.00  0.00    -0.386 OA
HETATM   31  H24 UNL     1      54.538  12.420  99.840  1.00  0.00     0.211 HD
ENDBRANCH  27  30
ENDBRANCH  11  27
BRANCH   8  32
HETATM   32  C27 UNL     1      48.961   3.622  99.472  1.00  0.00     0.086 A 
HETATM   33  N3  UNL     1      47.715   3.419  98.926  1.00  0.00    -0.276 N 
HETATM   34  N4  UNL     1      47.350   2.129  98.992  1.00  0.00     0.005 NA
HETATM   35  C30 UNL     1      46.829   4.371  98.302  1.00  0.00     0.175 C 
HETATM   36  N5  UNL     1      48.347   1.459  99.551  1.00  0.00    -0.163 NA
HETATM   37  C28 UNL     1      49.345   2.344  99.850  1.00  0.00     0.077 A 
HETATM   38  C29 UNL     1      50.593   1.880 100.492  1.00  0.00     0.074 C 
ENDBRANCH   8  32
TORSDOF 6
ENDMDL
