MODEL 1
REMARK VINA RESULT:      -6.0      0.000      0.000
REMARK  11 active torsions:
REMARK  status: ('A' for Active; 'I' for Inactive)
REMARK       I    between atoms: N1_4  and  C6_7 
REMARK    1  A    between atoms: C4_5  and  C7_8 
REMARK    2  A    between atoms: C5_6  and  C6_7 
REMARK    3  A    between atoms: C5_6  and  C8_11 
REMARK    4  A    between atoms: C7_8  and  O2_10 
REMARK    5  A    between atoms: C8_11  and  S1_12 
REMARK    6  A    between atoms: S1_12  and  S2_13 
REMARK    7  A    between atoms: S2_13  and  C9_14 
REMARK    8  A    between atoms: C9_14  and  C10_15 
REMARK    9  A    between atoms: C10_15  and  C11_16 
REMARK       I    between atoms: C11_16  and  N2_20 
REMARK   10  A    between atoms: C13_21  and  C16_24 
REMARK   11  A    between atoms: C16_24  and  O5_25 
ROOT
HETATM    1  S1  UNL     1      47.317   1.279 103.557  1.00  0.00    -0.097 SA
ENDROOT
BRANCH   1   2
HETATM    2  C8  UNL     1      48.327   2.358 104.636  1.00  0.00     0.099 C 
BRANCH   2   3
HETATM    3  C5  UNL     1      49.615   1.698 105.160  1.00  0.00     0.084 C 
HETATM    4  C18 UNL     1      50.406   1.025 104.036  1.00  0.00     0.020 C 
BRANCH   3   5
HETATM    5  C6  UNL     1      50.484   2.767 105.826  1.00  0.00     0.225 C 
HETATM    6  N1  UNL     1      51.269   2.390 106.895  1.00  0.00    -0.337 N 
HETATM    7  C3  UNL     1      51.165   1.183 107.698  1.00  0.00     0.127 C 
HETATM    8  C4  UNL     1      52.175   3.366 107.515  1.00  0.00     0.185 C 
HETATM    9  C2  UNL     1      51.588   1.637 109.084  1.00  0.00     0.022 C 
HETATM   10  C1  UNL     1      52.663   2.673 108.793  1.00  0.00     0.038 C 
HETATM   11  O3  UNL     1      50.509   3.924 105.403  1.00  0.00    -0.273 OA
BRANCH   8  12
HETATM   12  C7  UNL     1      53.388   3.747 106.660  1.00  0.00     0.163 C 
HETATM   13  O1  UNL     1      54.405   3.080 106.543  1.00  0.00    -0.648 OA
BRANCH  12  14
HETATM   14  O2  UNL     1      53.240   4.876 105.936  1.00  0.00    -0.775 OA
HETATM   15  H9  UNL     1      53.975   4.840 105.289  1.00  0.00     0.167 HD
ENDBRANCH  12  14
ENDBRANCH   8  12
ENDBRANCH   3   5
ENDBRANCH   2   3
ENDBRANCH   1   2
BRANCH   1  16
HETATM   16  S2  UNL     1      47.200   2.355 101.806  1.00  0.00    -0.097 SA
BRANCH  16  17
HETATM   17  C9  UNL     1      48.451   3.673 102.040  1.00  0.00     0.099 C 
BRANCH  17  18
HETATM   18  C10 UNL     1      49.660   3.649 101.093  1.00  0.00     0.084 C 
HETATM   19  C17 UNL     1      50.024   2.249 100.593  1.00  0.00     0.020 C 
BRANCH  18  20
HETATM   20  C11 UNL     1      49.460   4.607  99.919  1.00  0.00     0.225 C 
HETATM   21  O4  UNL     1      48.563   4.433  99.091  1.00  0.00    -0.273 OA
HETATM   22  N2  UNL     1      50.302   5.695  99.824  1.00  0.00    -0.337 N 
HETATM   23  C12 UNL     1      51.456   6.027 100.645  1.00  0.00     0.127 C 
HETATM   24  C13 UNL     1      50.114   6.670  98.746  1.00  0.00     0.185 C 
HETATM   25  C15 UNL     1      52.112   7.207  99.941  1.00  0.00     0.022 C 
HETATM   26  C14 UNL     1      50.951   7.865  99.202  1.00  0.00     0.038 C 
BRANCH  24  27
HETATM   27  C16 UNL     1      50.597   6.194  97.370  1.00  0.00     0.163 C 
HETATM   28  O6  UNL     1      51.760   6.193  96.990  1.00  0.00    -0.648 OA
BRANCH  27  29
HETATM   29  O5  UNL     1      49.634   5.677  96.576  1.00  0.00    -0.775 OA
HETATM   30  H22 UNL     1      49.050   5.199  97.200  1.00  0.00     0.167 HD
ENDBRANCH  27  29
ENDBRANCH  24  27
ENDBRANCH  18  20
ENDBRANCH  17  18
ENDBRANCH  16  17
ENDBRANCH   1  16
TORSDOF 11
ENDMDL
