MODEL 1
REMARK VINA RESULT:      -7.7      0.000      0.000
REMARK  7 active torsions:
REMARK  status: ('A' for Active; 'I' for Inactive)
REMARK    1  A    between atoms: C6_6  and  N1_7 
REMARK       I    between atoms: N1_7  and  C7_8 
REMARK    2  A    between atoms: N1_7  and  C8_9 
REMARK    3  A    between atoms: C7_8  and  C9_10 
REMARK    4  A    between atoms: C15_18  and  C16_19 
REMARK    5  A    between atoms: C16_19  and  C17_20 
REMARK    6  A    between atoms: C18_21  and  O2_26 
REMARK    7  A    between atoms: C20_23  and  O3_28 
ROOT
HETATM    1  C8  UNL     1      50.230   1.672 106.802  1.00  0.00     0.096 C 
HETATM    2  C11 UNL     1      50.516   0.596 105.836  1.00  0.00     0.056 C 
HETATM    3  C12 UNL     1      49.309   0.330 105.009  1.00  0.00     0.274 A 
HETATM    4  N2  UNL     1      48.561   1.381 104.467  1.00  0.00     0.088 N 
HETATM    5  C13 UNL     1      48.737   2.683 105.028  1.00  0.00     0.274 A 
HETATM    6  C14 UNL     1      49.832   2.900 105.992  1.00  0.00     0.056 C 
HETATM    7  C15 UNL     1      48.865   1.485 103.017  1.00  0.00     0.277 A 
HETATM    8 CL1  UNL     1      48.648   1.417 104.486  1.00  0.00    -0.145 Cl
HETATM    9  H33 UNL     1      49.662   1.762 105.346  1.00  0.00     0.145 HD
ENDROOT
BRANCH   1  10
HETATM   10  N1  UNL     1      51.315   2.098 107.638  1.00  0.00    -0.313 N 
HETATM   11  C7  UNL     1      51.519   1.500 108.908  1.00  0.00     0.224 C 
HETATM   12  O1  UNL     1      50.772   0.583 109.361  1.00  0.00    -0.273 OA
BRANCH  10  13
HETATM   13  C6  UNL     1      52.222   3.114 107.201  1.00  0.00     0.037 A 
HETATM   14  C1  UNL     1      53.450   2.689 106.709  1.00  0.00     0.030 A 
HETATM   15  C2  UNL     1      54.366   3.630 106.288  1.00  0.00     0.002 A 
HETATM   16  C3  UNL     1      54.082   4.981 106.346  1.00  0.00     0.000 A 
HETATM   17  C4  UNL     1      52.848   5.390 106.840  1.00  0.00     0.002 A 
HETATM   18  C5  UNL     1      51.926   4.458 107.265  1.00  0.00     0.030 A 
ENDBRANCH  10  13
BRANCH  11  19
HETATM   19  C9  UNL     1      52.644   1.929 109.796  1.00  0.00     0.099 C 
HETATM   20  C10 UNL     1      52.231   3.049 110.721  1.00  0.00     0.014 C 
ENDBRANCH  11  19
ENDBRANCH   1  10
BRANCH   7  21
HETATM   21  C16 UNL     1      47.796   2.321 102.343  1.00  0.00     0.071 C 
BRANCH  21  22
HETATM   22  C17 UNL     1      48.351   2.905 101.073  1.00  0.00    -0.023 A 
HETATM   23  C18 UNL     1      48.811   4.235 101.116  1.00  0.00     0.077 A 
HETATM   24  C19 UNL     1      49.343   4.777  99.986  1.00  0.00     0.074 A 
HETATM   25  C20 UNL     1      49.458   4.091  98.782  1.00  0.00     0.070 A 
HETATM   26  C21 UNL     1      49.003   2.792  98.762  1.00  0.00     0.037 A 
HETATM   27  C22 UNL     1      48.449   2.195  99.907  1.00  0.00     0.013 A 
BRANCH  23  28
HETATM   28  O2  UNL     1      48.666   4.867 102.341  1.00  0.00    -0.355 OA
HETATM   29  C23 UNL     1      49.786   5.544 102.876  1.00  0.00     0.210 C 
ENDBRANCH  23  28
BRANCH  25  30
HETATM   30  O3  UNL     1      49.999   4.663  97.646  1.00  0.00    -0.356 OA
HETATM   31  C24 UNL     1      50.107   4.068  96.387  1.00  0.00     0.210 C 
ENDBRANCH  25  30
ENDBRANCH  21  22
ENDBRANCH   7  21
TORSDOF 7
ENDMDL
