MODEL 1
REMARK VINA RESULT:      -7.7      0.000      0.000
REMARK  9 active torsions:
REMARK  status: ('A' for Active; 'I' for Inactive)
REMARK    1  A    between atoms: C1_1  and  C9_10 
REMARK    2  A    between atoms: C6_6  and  C7_7 
REMARK    3  A    between atoms: C7_7  and  C8_8 
REMARK    4  A    between atoms: C10_11  and  C11_12 
REMARK    5  A    between atoms: C12_13  and  C13_14 
REMARK    6  A    between atoms: C12_13  and  C14_15 
REMARK    7  A    between atoms: C16_18  and  C20_22 
REMARK    8  A    between atoms: C20_22  and  C21_23 
REMARK    9  A    between atoms: C21_23  and  O4_25 
ROOT
HETATM    1  C9  UNL     1      47.029   0.487 103.073  1.00  0.00    -0.017 C 
HETATM    2  C10 UNL     1      46.959   1.382 104.074  1.00  0.00    -0.003 C 
ENDROOT
BRANCH   1   3
HETATM    3  C1  UNL     1      45.895   0.021 102.168  1.00  0.00     0.042 C 
HETATM    4  C2  UNL     1      45.124  -1.144 102.785  1.00  0.00    -0.021 C 
HETATM    5  C3  UNL     1      45.063  -2.377 102.253  1.00  0.00    -0.025 C 
HETATM    6  C4  UNL     1      45.721  -2.689 100.949  1.00  0.00     0.013 C 
HETATM    7  C5  UNL     1      46.882  -1.729 100.650  1.00  0.00     0.006 C 
HETATM    8  C22 UNL     1      46.394  -4.043 100.757  1.00  0.00     0.009 C 
HETATM    9  C6  UNL     1      46.360  -0.289 100.705  1.00  0.00     0.078 C 
HETATM   10  C24 UNL     1      47.392  -2.296  99.331  1.00  0.00     0.006 C 
HETATM   11  C23 UNL     1      47.302  -3.819  99.535  1.00  0.00     0.001 C 
BRANCH   9  12
HETATM   12  C7  UNL     1      47.368   0.734 100.185  1.00  0.00     0.181 C 
HETATM   13  O1  UNL     1      48.573   0.627 100.410  1.00  0.00    -0.290 OA
BRANCH  12  14
HETATM   14  C8  UNL     1      46.861   1.856  99.410  1.00  0.00     0.078 A 
HETATM   15  C25 UNL     1      45.634   2.091  98.813  1.00  0.00     0.034 A 
HETATM   16  C26 UNL     1      45.689   3.361  98.186  1.00  0.00     0.019 A 
HETATM   17  C27 UNL     1      46.945   3.873  98.408  1.00  0.00     0.088 A 
HETATM   18  N1  UNL     1      47.647   2.957  99.143  1.00  0.00    -0.363 N 
HETATM   19  H33 UNL     1      48.606   3.052  99.460  1.00  0.00     0.165 HD
ENDBRANCH  12  14
ENDBRANCH   9  12
ENDBRANCH   1   3
BRANCH   2  20
HETATM   20  C11 UNL     1      48.102   1.734 104.891  1.00  0.00     0.005 C 
HETATM   21  C12 UNL     1      48.843   2.863 104.812  1.00  0.00    -0.051 C 
BRANCH  21  22
HETATM   22  C13 UNL     1      49.987   3.185 105.782  1.00  0.00     0.154 C 
HETATM   23  O2  UNL     1      50.966   3.962 105.080  1.00  0.00    -0.375 OA
HETATM   24  C16 UNL     1      52.087   4.409 105.849  1.00  0.00     0.136 C 
HETATM   25  C17 UNL     1      51.980   4.092 107.346  1.00  0.00     0.033 C 
HETATM   26  C18 UNL     1      51.674   2.611 107.575  1.00  0.00     0.009 C 
HETATM   27  C19 UNL     1      50.708   2.027 106.520  1.00  0.00     0.015 C 
HETATM   28  C28 UNL     1      51.494   1.101 105.574  1.00  0.00     0.012 C 
BRANCH  24  29
HETATM   29  C20 UNL     1      52.372   5.892 105.551  1.00  0.00     0.108 C 
HETATM   30  C29 UNL     1      53.871   6.181 105.453  1.00  0.00     0.024 C 
BRANCH  29  31
HETATM   31  C21 UNL     1      51.697   6.344 104.276  1.00  0.00     0.145 C 
HETATM   32  O3  UNL     1      52.180   6.418 103.159  1.00  0.00    -0.650 OA
BRANCH  31  33
HETATM   33  O4  UNL     1      50.416   6.714 104.478  1.00  0.00    -0.776 OA
HETATM   34  H23 UNL     1      49.915   6.158 103.844  1.00  0.00     0.167 HD
ENDBRANCH  31  33
ENDBRANCH  29  31
ENDBRANCH  24  29
ENDBRANCH  21  22
BRANCH  21  35
HETATM   35  C14 UNL     1      48.566   3.956 103.785  1.00  0.00     0.032 C 
HETATM   36  C15 UNL     1      49.134   3.616 102.414  1.00  0.00     0.010 C 
ENDBRANCH  21  35
ENDBRANCH   2  20
TORSDOF 9
ENDMDL
