MODEL 1
REMARK VINA RESULT:      -9.2      0.000      0.000
REMARK  5 active torsions:
REMARK  status: ('A' for Active; 'I' for Inactive)
REMARK    1  A    between atoms: C1_1  and  O1_2 
REMARK    2  A    between atoms: C1_1  and  C16_22 
REMARK    3  A    between atoms: O1_2  and  C2_3 
REMARK    4  A    between atoms: C5_6  and  N1_10 
REMARK       I    between atoms: N1_10  and  C9_11 
REMARK       I    between atoms: C9_11  and  N2_12 
REMARK    5  A    between atoms: N2_12  and  C10_14 
ROOT
HETATM    1  C2  UNL     1      51.349   6.428 102.589  1.00  0.00     0.069 A 
HETATM    2  C3  UNL     1      52.309   7.425 102.715  1.00  0.00     0.039 A 
HETATM    3  C4  UNL     1      52.669   8.199 101.604  1.00  0.00     0.033 A 
HETATM    4  C5  UNL     1      52.072   8.001 100.353  1.00  0.00     0.042 A 
HETATM    5  C6  UNL     1      51.103   6.985 100.218  1.00  0.00    -0.033 A 
HETATM    6  C7  UNL     1      50.753   6.216 101.344  1.00  0.00     0.045 A 
HETATM    7  C8  UNL     1      50.415   6.690  98.913  1.00  0.00     0.050 C 
ENDROOT
BRANCH   4   8
HETATM    8  N1  UNL     1      52.430   8.764  99.216  1.00  0.00    -0.308 N 
HETATM    9  C9  UNL     1      52.514  10.146  99.111  1.00  0.00     0.325 C 
HETATM   10  N2  UNL     1      53.041  10.493  97.873  1.00  0.00    -0.309 N 
HETATM   11  O2  UNL     1      52.178  10.944  99.974  1.00  0.00    -0.247 OA
HETATM   12  H10 UNL     1      53.531   9.756  97.388  1.00  0.00     0.170 HD
HETATM   13  H9  UNL     1      52.458   8.267  98.340  1.00  0.00     0.170 HD
BRANCH  10  14
HETATM   14  C10 UNL     1      53.171  11.791  97.333  1.00  0.00     0.038 A 
HETATM   15  C11 UNL     1      51.995  12.453  96.961  1.00  0.00     0.055 A 
HETATM   16  C12 UNL     1      52.042  13.747  96.427  1.00  0.00     0.058 A 
HETATM   17  C13 UNL     1      53.270  14.393  96.265  1.00  0.00     0.055 A 
HETATM   18 CL1  UNL     1      50.540  14.487  95.992  1.00  0.00    -0.082 Cl
HETATM   19  C14 UNL     1      54.444  13.741  96.642  1.00  0.00     0.028 A 
HETATM   20 CL2  UNL     1      53.403  15.989  95.616  1.00  0.00    -0.083 Cl
HETATM   21  C15 UNL     1      54.393  12.448  97.175  1.00  0.00     0.031 A 
ENDBRANCH  10  14
ENDBRANCH   4   8
BRANCH   1  22
HETATM   22  O1  UNL     1      50.906   5.600 103.582  1.00  0.00    -0.345 OA
BRANCH  22  23
HETATM   23  C1  UNL     1      51.152   6.013 104.927  1.00  0.00     0.242 C 
BRANCH  23  24
HETATM   24  C16 UNL     1      51.242   4.772 105.766  1.00  0.00     0.100 A 
HETATM   25  N3  UNL     1      50.539   3.678 105.556  1.00  0.00    -0.243 NA
HETATM   26  C17 UNL     1      50.851   2.724 106.509  1.00  0.00     0.075 A 
HETATM   27  C18 UNL     1      51.790   3.114 107.465  1.00  0.00     0.035 A 
HETATM   28  C22 UNL     1      50.304   1.426 106.589  1.00  0.00     0.033 A 
HETATM   29  S1  UNL     1      52.283   4.731 107.135  1.00  0.00    -0.070 SA
HETATM   30  C19 UNL     1      52.204   2.256 108.496  1.00  0.00     0.021 A 
HETATM   31  C20 UNL     1      51.648   0.973 108.552  1.00  0.00     0.002 A 
HETATM   32  C21 UNL     1      50.709   0.561 107.611  1.00  0.00     0.002 A 
ENDBRANCH  23  24
ENDBRANCH  22  23
ENDBRANCH   1  22
TORSDOF 5
ENDMDL
