MODEL 1
REMARK VINA RESULT:      -7.4      0.000      0.000
REMARK  4 active torsions:
REMARK  status: ('A' for Active; 'I' for Inactive)
REMARK    1  A    between atoms: C2_2  and  C14_20 
REMARK    2  A    between atoms: C5_6  and  N2_7 
REMARK    3  A    between atoms: C8_11  and  C10_13 
REMARK    4  A    between atoms: C10_13  and  O2_14 
ROOT
HETATM    1  C1  UNL     1      50.344   3.867 105.150  1.00  0.00     0.107 A 
HETATM    2  C2  UNL     1      51.100   3.929 106.336  1.00  0.00     0.164 A 
HETATM    3  N1  UNL     1      51.272   2.876 107.182  1.00  0.00    -0.238 NA
HETATM    4  C3  UNL     1      50.673   1.718 106.819  1.00  0.00     0.110 A 
HETATM    5  C4  UNL     1      49.920   1.601 105.661  1.00  0.00     0.091 A 
HETATM    6  C5  UNL     1      49.712   2.662 104.771  1.00  0.00     0.083 A 
HETATM    7  C11 UNL     1      50.662   0.454 107.466  1.00  0.00     0.087 A 
HETATM    8  C12 UNL     1      49.914  -0.414 106.693  1.00  0.00     0.030 A 
HETATM    9  N3  UNL     1      49.479   0.296 105.600  1.00  0.00    -0.355 N 
HETATM   10 CL1  UNL     1      51.445   0.095 108.933  1.00  0.00    -0.080 Cl
HETATM   11  C13 UNL     1      49.581  -1.847 106.886  1.00  0.00     0.070 C 
HETATM   12  C15 UNL     1      50.215   5.042 104.336  1.00  0.00     0.104 C 
HETATM   13  N4  UNL     1      50.115   5.986 103.670  1.00  0.00    -0.191 NA
HETATM   14  H11 UNL     1      48.920  -0.063 104.837  1.00  0.00     0.166 HD
ENDROOT
BRANCH   2  15
HETATM   15  C14 UNL     1      51.770   5.241 106.728  1.00  0.00     0.436 C 
HETATM   16  F1  UNL     1      52.699   5.643 105.813  1.00  0.00    -0.165 F 
HETATM   17  F2  UNL     1      50.912   6.290 106.860  1.00  0.00    -0.165 F 
HETATM   18  F3  UNL     1      52.428   5.154 107.919  1.00  0.00    -0.165 F 
ENDBRANCH   2  15
BRANCH   6  19
HETATM   19  N2  UNL     1      48.924   2.436 103.652  1.00  0.00    -0.373 N 
HETATM   20  C6  UNL     1      47.650   3.184 103.623  1.00  0.00     0.149 C 
HETATM   21  C7  UNL     1      46.871   2.811 102.349  1.00  0.00     0.188 C 
HETATM   22  O1  UNL     1      47.566   3.088 101.123  1.00  0.00    -0.381 OA
HETATM   23  C8  UNL     1      48.981   3.283 101.294  1.00  0.00     0.163 C 
HETATM   24  C9  UNL     1      49.590   2.306 102.328  1.00  0.00     0.157 C 
BRANCH  23  25
HETATM   25  C10 UNL     1      49.667   3.142  99.934  1.00  0.00     0.197 C 
BRANCH  25  26
HETATM   26  O2  UNL     1      49.991   1.786  99.651  1.00  0.00    -0.398 OA
HETATM   27  H10 UNL     1      50.580   1.780  98.872  1.00  0.00     0.209 HD
ENDBRANCH  25  26
ENDBRANCH  23  25
ENDBRANCH   6  19
TORSDOF 4
ENDMDL
