MODEL 1
REMARK VINA RESULT:      -7.2      0.000      0.000
REMARK  7 active torsions:
REMARK  status: ('A' for Active; 'I' for Inactive)
REMARK    1  A    between atoms: C2_3  and  N5_19 
REMARK    2  A    between atoms: N4_9  and  C6_10 
REMARK    3  A    between atoms: C7_12  and  C10_16 
REMARK    4  A    between atoms: C8_13  and  O3_17 
REMARK    5  A    between atoms: C9_14  and  O4_18 
REMARK    6  A    between atoms: O2_15  and  C10_16 
REMARK    7  A    between atoms: N5_19  and  C11_20 
ROOT
HETATM    1  C1  UNL     1      47.208   2.900 103.774  1.00  0.00     0.237 A 
HETATM    2  N1  UNL     1      48.251   2.586 104.569  1.00  0.00    -0.228 NA
HETATM    3  C2  UNL     1      49.421   2.195 103.998  1.00  0.00     0.137 A 
HETATM    4  C3  UNL     1      49.474   2.155 102.590  1.00  0.00     0.144 A 
HETATM    5  C4  UNL     1      48.325   2.508 101.901  1.00  0.00     0.166 A 
HETATM    6  N2  UNL     1      47.148   2.880 102.427  1.00  0.00    -0.222 NA
HETATM    7  N3  UNL     1      50.490   1.822 101.714  1.00  0.00    -0.236 NA
HETATM    8  C5  UNL     1      49.965   1.980 100.517  1.00  0.00     0.214 A 
HETATM    9  N4  UNL     1      48.655   2.382 100.579  1.00  0.00    -0.294 N 
ENDROOT
BRANCH   9  10
HETATM   10  C6  UNL     1      47.800   2.610  99.434  1.00  0.00     0.262 C 
HETATM   11  O1  UNL     1      48.307   1.863  98.313  1.00  0.00    -0.353 OA
HETATM   12  C7  UNL     1      48.061   2.652  97.115  1.00  0.00     0.179 C 
HETATM   13  C8  UNL     1      47.270   3.888  97.543  1.00  0.00     0.182 C 
HETATM   14  C9  UNL     1      47.691   4.071  98.993  1.00  0.00     0.198 C 
BRANCH  12  15
HETATM   15  C10 UNL     1      49.417   3.007  96.499  1.00  0.00     0.198 C 
BRANCH  15  16
HETATM   16  O2  UNL     1      50.413   2.100  96.969  1.00  0.00    -0.398 OA
HETATM   17  H7  UNL     1      49.952   1.487  97.573  1.00  0.00     0.209 HD
ENDBRANCH  15  16
ENDBRANCH  12  15
BRANCH  13  18
HETATM   18  O3  UNL     1      45.863   3.608  97.503  1.00  0.00    -0.390 OA
HETATM   19  H10 UNL     1      45.445   4.429  97.169  1.00  0.00     0.210 HD
ENDBRANCH  13  18
BRANCH  14  20
HETATM   20  O4  UNL     1      46.712   4.826  99.707  1.00  0.00    -0.388 OA
HETATM   21  H11 UNL     1      47.183   5.345 100.389  1.00  0.00     0.210 HD
ENDBRANCH  14  20
ENDBRANCH   9  10
BRANCH   3  22
HETATM   22  N5  UNL     1      50.522   1.837 104.776  1.00  0.00    -0.271 NA
HETATM   23  H12 UNL     1      51.213   2.585 104.774  1.00  0.00     0.129 HD
BRANCH  22  24
HETATM   24  C11 UNL     1      50.256   1.219 106.070  1.00  0.00     0.062 C 
HETATM   25  C12 UNL     1      51.104   1.875 107.177  1.00  0.00     0.020 C 
HETATM   26  C13 UNL     1      51.462   0.923 108.321  1.00  0.00     0.002 C 
HETATM   27  C14 UNL     1      50.406  -0.155 108.518  1.00  0.00     0.000 C 
HETATM   28  C15 UNL     1      50.238  -1.017 107.267  1.00  0.00     0.002 C 
HETATM   29  C16 UNL     1      50.561  -0.280 105.967  1.00  0.00     0.020 C 
ENDBRANCH  22  24
ENDBRANCH   3  22
TORSDOF 7
ENDMDL
