MODEL 1
REMARK VINA RESULT:      -9.0      0.000      0.000
REMARK  4 active torsions:
REMARK  status: ('A' for Active; 'I' for Inactive)
REMARK    1  A    between atoms: N2_12  and  C21_25 
REMARK    2  A    between atoms: C22_26  and  O3_31 
REMARK    3  A    between atoms: C23_27  and  O4_32 
REMARK    4  A    between atoms: C24_28  and  O5_34 
ROOT
HETATM    1  C1  UNL     1      47.914  -0.519 104.903  1.00  0.00     0.022 A 
HETATM    2  C2  UNL     1      48.452   0.696 104.488  1.00  0.00     0.077 A 
HETATM    3  C3  UNL     1      49.575   1.379 105.350  1.00  0.00     0.072 A 
HETATM    4  C4  UNL     1      50.042   0.803 106.519  1.00  0.00     0.014 A 
HETATM    5  C5  UNL     1      49.464  -0.420 106.885  1.00  0.00    -0.010 A 
HETATM    6  C6  UNL     1      48.448  -1.040 106.097  1.00  0.00     0.054 A 
HETATM    7  N1  UNL     1      50.250   2.544 105.143  1.00  0.00    -0.353 N 
HETATM    8  C7  UNL     1      51.139   2.763 106.172  1.00  0.00     0.043 A 
HETATM    9  C8  UNL     1      51.037   1.680 107.048  1.00  0.00     0.004 A 
HETATM   10  C9  UNL     1      46.925  -0.880 103.936  1.00  0.00     0.004 A 
HETATM   11  C10 UNL     1      46.890   0.135 102.967  1.00  0.00     0.048 A 
HETATM   12  N2  UNL     1      47.846   1.084 103.319  1.00  0.00    -0.313 N 
HETATM   13  C11 UNL     1      46.040  -1.971 103.790  1.00  0.00     0.014 A 
HETATM   14  C12 UNL     1      45.154  -2.027 102.709  1.00  0.00     0.001 A 
HETATM   15  C13 UNL     1      45.131  -1.009 101.770  1.00  0.00     0.002 A 
HETATM   16  C14 UNL     1      45.992   0.085 101.881  1.00  0.00     0.030 A 
HETATM   17  C15 UNL     1      52.019   3.831 106.388  1.00  0.00     0.030 A 
HETATM   18  C16 UNL     1      52.824   3.790 107.530  1.00  0.00     0.002 A 
HETATM   19  C17 UNL     1      52.749   2.722 108.420  1.00  0.00     0.001 A 
HETATM   20  C18 UNL     1      51.861   1.663 108.192  1.00  0.00     0.014 A 
HETATM   21  C19 UNL     1      49.759  -1.273 108.082  1.00  0.00     0.163 A 
HETATM   22  N3  UNL     1      48.865  -2.383 107.915  1.00  0.00    -0.353 N 
HETATM   23  C20 UNL     1      48.086  -2.293 106.781  1.00  0.00     0.253 A 
HETATM   24  O1  UNL     1      47.268  -3.125 106.451  1.00  0.00    -0.268 OA
HETATM   25  H1  UNL     1      50.130   3.159 104.350  1.00  0.00     0.166 HD
HETATM   26  H12 UNL     1      48.780  -3.172 108.540  1.00  0.00     0.163 HD
ENDROOT
BRANCH  12  27
HETATM   27  C21 UNL     1      48.119   2.293 102.527  1.00  0.00     0.260 C 
HETATM   28  C22 UNL     1      47.543   3.563 103.187  1.00  0.00     0.198 C 
HETATM   29  C23 UNL     1      47.996   4.823 102.430  1.00  0.00     0.182 C 
HETATM   30  C24 UNL     1      49.499   4.806 102.119  1.00  0.00     0.178 C 
HETATM   31  C25 UNL     1      49.958   3.474 101.501  1.00  0.00     0.151 C 
HETATM   32  O2  UNL     1      49.537   2.372 102.310  1.00  0.00    -0.356 OA
HETATM   33  C26 UNL     1      49.579   3.282 100.035  1.00  0.00     0.042 C 
BRANCH  28  34
HETATM   34  O3  UNL     1      46.105   3.553 103.199  1.00  0.00    -0.388 OA
HETATM   35  H18 UNL     1      45.824   4.381 102.757  1.00  0.00     0.210 HD
ENDBRANCH  28  34
BRANCH  29  36
HETATM   36  O4  UNL     1      47.223   4.934 101.223  1.00  0.00    -0.390 OA
HETATM   37  H19 UNL     1      46.405   4.419 101.358  1.00  0.00     0.210 HD
ENDBRANCH  29  36
BRANCH  30  38
HETATM   38  O5  UNL     1      50.205   5.000 103.354  1.00  0.00    -0.390 OA
HETATM   39  H23 UNL     1      51.109   4.653 103.232  1.00  0.00     0.210 HD
ENDBRANCH  30  38
ENDBRANCH  12  27
TORSDOF 4
ENDMDL
