MODEL 1
REMARK VINA RESULT:      -7.5      0.000      0.000
REMARK  6 active torsions:
REMARK  status: ('A' for Active; 'I' for Inactive)
REMARK    1  A    between atoms: C2_2  and  O2_8 
REMARK    2  A    between atoms: C3_3  and  C7_9 
REMARK    3  A    between atoms: C6_6  and  O1_7 
REMARK    4  A    between atoms: C11_14  and  C12_16 
REMARK    5  A    between atoms: C12_16  and  C13_17 
REMARK    6  A    between atoms: C20_24  and  O6_29 
ROOT
HETATM    1  C7  UNL     1      51.115   7.816  98.400  1.00  0.00     0.099 A 
HETATM    2  O3  UNL     1      50.960   9.011  97.724  1.00  0.00    -0.307 OA
HETATM    3  C8  UNL     1      51.502  10.156  98.254  1.00  0.00     0.106 A 
HETATM    4  C9  UNL     1      52.118  10.163  99.503  1.00  0.00     0.083 A 
HETATM    5  C10 UNL     1      52.197   8.907 100.259  1.00  0.00     0.197 A 
HETATM    6  C11 UNL     1      51.705   7.672  99.603  1.00  0.00     0.031 A 
HETATM    7  O4  UNL     1      52.651   8.917 101.401  1.00  0.00    -0.287 OA
HETATM    8  C17 UNL     1      51.411  11.341  97.501  1.00  0.00     0.032 A 
HETATM    9  C18 UNL     1      51.945  12.523  98.025  1.00  0.00     0.086 A 
HETATM   10  C19 UNL     1      52.551  12.531  99.282  1.00  0.00     0.075 A 
HETATM   11  C20 UNL     1      52.638  11.355 100.018  1.00  0.00     0.085 A 
HETATM   12  C21 UNL     1      50.767  11.378  96.192  1.00  0.00     0.016 C 
HETATM   13  C22 UNL     1      50.790  12.524  95.506  1.00  0.00     0.012 C 
HETATM   14  C23 UNL     1      51.443  13.786  96.022  1.00  0.00     0.078 C 
HETATM   15  O5  UNL     1      51.900  13.732  97.388  1.00  0.00    -0.336 OA
HETATM   16  C24 UNL     1      50.434  14.938  95.959  1.00  0.00     0.051 C 
HETATM   17  C25 UNL     1      52.663  14.122  95.157  1.00  0.00     0.051 C 
ENDROOT
BRANCH   1  18
HETATM   18  C3  UNL     1      50.552   6.682  97.649  1.00  0.00     0.032 A 
HETATM   19  C2  UNL     1      51.194   6.147  96.524  1.00  0.00     0.081 A 
HETATM   20  C1  UNL     1      50.640   5.075  95.828  1.00  0.00     0.074 A 
HETATM   21  C6  UNL     1      49.432   4.537  96.259  1.00  0.00     0.068 A 
HETATM   22  C5  UNL     1      48.769   5.053  97.368  1.00  0.00     0.037 A 
HETATM   23  C4  UNL     1      49.329   6.128  98.062  1.00  0.00     0.020 A 
BRANCH  19  24
HETATM   24  O2  UNL     1      52.383   6.688  96.110  1.00  0.00    -0.360 OA
HETATM   25  H5  UNL     1      52.507   6.487  95.167  1.00  0.00     0.217 HD
ENDBRANCH  19  24
BRANCH  21  26
HETATM   26  O1  UNL     1      48.920   3.487  95.552  1.00  0.00    -0.361 OA
HETATM   27  H4  UNL     1      48.107   3.776  95.106  1.00  0.00     0.217 HD
ENDBRANCH  21  26
ENDBRANCH   1  18
BRANCH   6  28
HETATM   28  C12 UNL     1      51.881   6.384 100.368  1.00  0.00     0.073 C 
BRANCH  28  29
HETATM   29  C13 UNL     1      50.791   6.184 101.387  1.00  0.00    -0.020 C 
HETATM   30  C14 UNL     1      50.000   5.108 101.569  1.00  0.00    -0.091 C 
HETATM   31  C15 UNL     1      50.037   3.851 100.745  1.00  0.00     0.042 C 
HETATM   32  C16 UNL     1      48.959   5.099 102.658  1.00  0.00     0.042 C 
ENDBRANCH  28  29
ENDBRANCH   6  28
BRANCH  11  33
HETATM   33  O6  UNL     1      53.245  11.439 101.242  1.00  0.00    -0.360 OA
HETATM   34  H18 UNL     1      54.219  11.423 101.100  1.00  0.00     0.217 HD
ENDBRANCH  11  33
TORSDOF 6
ENDMDL
