MODEL 1
REMARK VINA RESULT:      -8.3      0.000      0.000
REMARK  6 active torsions:
REMARK  status: ('A' for Active; 'I' for Inactive)
REMARK    1  A    between atoms: C1_1  and  C2_2 
REMARK       I    between atoms: C2_2  and  N1_4 
REMARK    2  A    between atoms: N1_4  and  C4_6 
REMARK    3  A    between atoms: N1_4  and  C5_7 
REMARK    4  A    between atoms: N2_15  and  C15_18 
REMARK    5  A    between atoms: C15_18  and  C16_19 
REMARK    6  A    between atoms: C16_19  and  C18_21 
ROOT
HETATM    1  C4  UNL     1      48.735   1.476 104.344  1.00  0.00     0.096 C 
HETATM    2  C11 UNL     1      50.210   1.118 104.130  1.00  0.00     0.056 C 
HETATM    3  C12 UNL     1      50.818   0.560 105.417  1.00  0.00     0.275 C 
HETATM    4  N2  UNL     1      50.703   1.511 106.545  1.00  0.00     0.093 N 
HETATM    5  C13 UNL     1      49.286   1.836 106.778  1.00  0.00     0.275 C 
HETATM    6  C14 UNL     1      48.620   2.432 105.534  1.00  0.00     0.056 C 
ENDROOT
BRANCH   4   7
HETATM    7  C15 UNL     1      51.403   0.967 107.755  1.00  0.00     0.225 C 
HETATM    8  C17 UNL     1      50.465   0.238 108.739  1.00  0.00     0.043 C 
BRANCH   7   9
HETATM    9  C16 UNL     1      52.117   2.121 108.519  1.00  0.00     0.100 C 
BRANCH   9  10
HETATM   10  C18 UNL     1      52.373   3.317 107.668  1.00  0.00     0.056 A 
HETATM   11  O2  UNL     1      53.641   3.461 107.189  1.00  0.00    -0.314 OA
HETATM   12  C19 UNL     1      53.657   4.599 106.442  1.00  0.00     0.086 A 
HETATM   13  C20 UNL     1      52.400   5.189 106.432  1.00  0.00     0.000 A 
HETATM   14  C22 UNL     1      54.768   5.112 105.775  1.00  0.00     0.038 A 
HETATM   15  C21 UNL     1      51.573   4.351 107.224  1.00  0.00     0.047 A 
HETATM   16  C25 UNL     1      52.223   6.381 105.707  1.00  0.00     0.014 A 
HETATM   17  C24 UNL     1      53.323   6.923 105.023  1.00  0.00     0.001 A 
HETATM   18  C23 UNL     1      54.573   6.298 105.058  1.00  0.00     0.003 A 
ENDBRANCH   9  10
ENDBRANCH   7   9
ENDBRANCH   4   7
BRANCH   1  19
HETATM   19  N1  UNL     1      48.076   1.929 103.096  1.00  0.00    -0.313 N 
HETATM   20  C2  UNL     1      47.079   1.100 102.559  1.00  0.00     0.224 C 
HETATM   21  O1  UNL     1      46.715   0.061 103.116  1.00  0.00    -0.273 OA
BRANCH  20  22
HETATM   22  C1  UNL     1      46.423   1.568 101.261  1.00  0.00     0.099 C 
HETATM   23  C3  UNL     1      46.448   0.493 100.186  1.00  0.00     0.014 C 
ENDBRANCH  20  22
BRANCH  19  24
HETATM   24  C5  UNL     1      48.767   2.865 102.279  1.00  0.00     0.037 A 
HETATM   25  C6  UNL     1      49.501   2.439 101.168  1.00  0.00     0.030 A 
HETATM   26  C7  UNL     1      50.167   3.371 100.371  1.00  0.00     0.002 A 
HETATM   27  C8  UNL     1      50.094   4.730 100.681  1.00  0.00     0.000 A 
HETATM   28  C9  UNL     1      49.358   5.158 101.786  1.00  0.00     0.002 A 
HETATM   29  C10 UNL     1      48.694   4.226 102.585  1.00  0.00     0.030 A 
ENDBRANCH  19  24
ENDBRANCH   1  19
TORSDOF 6
ENDMDL
