MODEL 1
REMARK VINA RESULT:      -8.3      0.000      0.000
REMARK  9 active torsions:
REMARK  status: ('A' for Active; 'I' for Inactive)
REMARK    1  A    between atoms: C1_1  and  C2_2 
REMARK       I    between atoms: C2_2  and  N1_4 
REMARK    2  A    between atoms: N1_4  and  C4_6 
REMARK    3  A    between atoms: N1_4  and  C5_7 
REMARK    4  A    between atoms: C15_18  and  C16_19 
REMARK    5  A    between atoms: C16_19  and  C17_20 
REMARK    6  A    between atoms: C18_21  and  O3_28 
REMARK    7  A    between atoms: C20_23  and  C25_30 
REMARK    8  A    between atoms: C21_24  and  O2_26 
REMARK    9  A    between atoms: C25_30  and  C26_31 
ROOT
HETATM    1  C4  UNL     1      50.247   1.552 106.717  1.00  0.00     0.096 C 
HETATM    2  C11 UNL     1      50.747   1.492 105.268  1.00  0.00     0.045 C 
HETATM    3  C12 UNL     1      49.654   0.912 104.376  1.00  0.00     0.119 A 
HETATM    4  N2  UNL     1      48.472   1.671 104.541  1.00  0.00    -0.412 N 
HETATM    5  C13 UNL     1      48.562   2.823 105.332  1.00  0.00     0.119 A 
HETATM    6  C14 UNL     1      49.069   2.471 106.723  1.00  0.00     0.045 C 
HETATM    7  C15 UNL     1      47.352   1.400 103.759  1.00  0.00     0.121 A 
HETATM    8 CL1  UNL     1      48.514   1.908 104.572  1.00  0.00    -0.145 Cl
HETATM    9  H39 UNL     1      47.535   1.586 103.652  1.00  0.00     0.145 HD
ENDROOT
BRANCH   7  10
HETATM   10  C16 UNL     1      47.514   1.716 102.266  1.00  0.00     0.061 C 
BRANCH  10  11
HETATM   11  C17 UNL     1      47.089   0.465 101.564  1.00  0.00    -0.021 A 
HETATM   12  C18 UNL     1      47.457   0.241 100.230  1.00  0.00     0.075 A 
HETATM   13  C19 UNL     1      47.038  -0.902  99.595  1.00  0.00     0.047 A 
HETATM   14  C20 UNL     1      46.246  -1.879 100.209  1.00  0.00    -0.022 A 
HETATM   15  C21 UNL     1      45.896  -1.636 101.518  1.00  0.00     0.075 A 
HETATM   16  C22 UNL     1      46.318  -0.484 102.167  1.00  0.00     0.047 A 
BRANCH  12  17
HETATM   17  O3  UNL     1      48.228   1.205  99.652  1.00  0.00    -0.355 OA
HETATM   18  C24 UNL     1      47.829   2.067  98.644  1.00  0.00     0.210 C 
ENDBRANCH  12  17
BRANCH  14  19
HETATM   19  C25 UNL     1      45.849  -3.094  99.460  1.00  0.00     0.041 C 
BRANCH  19  20
HETATM   20  C26 UNL     1      46.942  -4.055  99.179  1.00  0.00     0.000 C 
HETATM   21  C27 UNL     1      47.843  -4.408 100.305  1.00  0.00     0.005 C 
ENDBRANCH  19  20
ENDBRANCH  14  19
BRANCH  15  22
HETATM   22  O2  UNL     1      45.113  -2.544 102.199  1.00  0.00    -0.355 OA
HETATM   23  C23 UNL     1      45.682  -3.390 103.172  1.00  0.00     0.210 C 
ENDBRANCH  15  22
ENDBRANCH  10  11
ENDBRANCH   7  10
BRANCH   1  24
HETATM   24  N1  UNL     1      51.352   2.040 107.524  1.00  0.00    -0.313 N 
HETATM   25  C2  UNL     1      51.577   1.497 108.821  1.00  0.00     0.224 C 
HETATM   26  O1  UNL     1      50.783   0.616 109.267  1.00  0.00    -0.273 OA
BRANCH  25  27
HETATM   27  C1  UNL     1      52.693   1.920 109.670  1.00  0.00     0.099 C 
HETATM   28  C3  UNL     1      52.302   3.067 110.568  1.00  0.00     0.014 C 
ENDBRANCH  25  27
BRANCH  24  29
HETATM   29  C5  UNL     1      52.224   3.075 107.055  1.00  0.00     0.037 A 
HETATM   30  C6  UNL     1      51.658   4.330 106.963  1.00  0.00     0.030 A 
HETATM   31  C7  UNL     1      52.396   5.384 106.521  1.00  0.00     0.002 A 
HETATM   32  C8  UNL     1      53.708   5.177 106.168  1.00  0.00     0.000 A 
HETATM   33  C9  UNL     1      54.250   3.932 106.265  1.00  0.00     0.002 A 
HETATM   34  C10 UNL     1      53.524   2.855 106.709  1.00  0.00     0.030 A 
ENDBRANCH  24  29
ENDBRANCH   1  24
TORSDOF 9
ENDMDL
