MODEL 1
REMARK VINA RESULT:      -7.9      0.000      0.000
REMARK  3 active torsions:
REMARK  status: ('A' for Active; 'I' for Inactive)
REMARK    1  A    between atoms: C2_2  and  C11_15 
REMARK    2  A    between atoms: C3_4  and  N2_6 
REMARK       I    between atoms: N2_6  and  C4_7 
REMARK    3  A    between atoms: C4_7  and  C5_8 
ROOT
HETATM    1  C1  UNL     1      47.489   3.251 102.525  1.00  0.00     0.085 A 
HETATM    2  C2  UNL     1      48.788   3.286 102.053  1.00  0.00     0.077 A 
HETATM    3  N1  UNL     1      49.748   2.852 102.951  1.00  0.00    -0.223 NA
HETATM    4  C3  UNL     1      49.179   2.538 104.084  1.00  0.00     0.173 A 
HETATM    5  S1  UNL     1      47.482   2.725 104.159  1.00  0.00    -0.061 SA
ENDROOT
BRANCH   4   6
HETATM    6  N2  UNL     1      49.734   2.081 105.247  1.00  0.00    -0.301 N 
HETATM    7  C4  UNL     1      50.673   2.800 105.950  1.00  0.00     0.257 C 
HETATM    8  O1  UNL     1      51.182   3.867 105.634  1.00  0.00    -0.267 OA
HETATM    9  H2  UNL     1      49.478   1.148 105.524  1.00  0.00     0.171 HD
BRANCH   7  10
HETATM   10  C5  UNL     1      51.134   2.146 107.209  1.00  0.00     0.032 A 
HETATM   11  C6  UNL     1      50.680   0.852 107.493  1.00  0.00     0.017 A 
HETATM   12  C7  UNL     1      51.085   0.208 108.663  1.00  0.00     0.001 A 
HETATM   13  C8  UNL     1      51.952   0.849 109.547  1.00  0.00     0.000 A 
HETATM   14  C9  UNL     1      52.423   2.132 109.260  1.00  0.00     0.001 A 
HETATM   15  C10 UNL     1      52.019   2.780 108.091  1.00  0.00     0.017 A 
ENDBRANCH   7  10
ENDBRANCH   4   6
BRANCH   2  16
HETATM   16  C11 UNL     1      49.148   3.663 100.692  1.00  0.00    -0.001 A 
HETATM   17  C12 UNL     1      48.901   2.726  99.677  1.00  0.00     0.015 A 
HETATM   18  C13 UNL     1      49.184   3.018  98.342  1.00  0.00     0.007 A 
HETATM   19  C14 UNL     1      49.717   4.258  97.992  1.00  0.00    -0.061 A 
HETATM   20  C15 UNL     1      50.001   5.185  99.004  1.00  0.00     0.014 A 
HETATM   21  C17 UNL     1      50.051   4.568  96.562  1.00  0.00     0.048 C 
HETATM   22  C16 UNL     1      49.738   4.899 100.359  1.00  0.00    -0.049 A 
HETATM   23  C18 UNL     1      50.102   5.935 101.387  1.00  0.00     0.049 C 
ENDBRANCH   2  16
TORSDOF 3
ENDMDL
