MODEL 1
REMARK VINA RESULT:      -7.4      0.000      0.000
REMARK  1 active torsions:
REMARK  status: ('A' for Active; 'I' for Inactive)
REMARK    1  A    between atoms: C13_13  and  C17_21 
ROOT
HETATM    1  C1  UNL     1      49.878   1.134 105.187  1.00  0.00     0.018 C 
HETATM    2  C2  UNL     1      49.444   2.583 104.799  1.00  0.00     0.001 C 
HETATM    3  C3  UNL     1      50.670   3.549 105.063  1.00  0.00     0.031 C 
HETATM    4  C4  UNL     1      51.306   3.293 106.399  1.00  0.00    -0.038 A 
HETATM    5  C5  UNL     1      51.143   2.157 107.072  1.00  0.00     0.022 A 
HETATM    6  C6  UNL     1      50.336   0.990 106.650  1.00  0.00     0.046 C 
HETATM    7  C7  UNL     1      49.058   2.698 103.298  1.00  0.00     0.139 A 
HETATM    8  C8  UNL     1      49.325   4.063 102.602  1.00  0.00     0.185 A 
HETATM    9  C9  UNL     1      49.898   5.237 103.400  1.00  0.00     0.169 A 
HETATM   10  C10 UNL     1      50.290   5.025 104.825  1.00  0.00     0.045 C 
HETATM   11  C11 UNL     1      48.801   1.475 102.400  1.00  0.00     0.194 A 
HETATM   12  C12 UNL     1      48.759   1.632 100.900  1.00  0.00     0.198 A 
HETATM   13  C13 UNL     1      49.098   2.970 100.257  1.00  0.00     0.156 A 
HETATM   14  C14 UNL     1      49.597   4.091 101.121  1.00  0.00     0.204 C 
HETATM   15  C15 UNL     1      52.234   4.188 107.114  1.00  0.00     0.214 A 
HETATM   16  O1  UNL     1      52.588   3.453 108.290  1.00  0.00    -0.313 OA
HETATM   17  C16 UNL     1      51.950   2.249 108.286  1.00  0.00     0.289 A 
HETATM   18  O2  UNL     1      52.039   1.390 109.143  1.00  0.00    -0.260 OA
HETATM   19  O3  UNL     1      50.242   5.006 100.618  1.00  0.00    -0.291 OA
HETATM   20  O4  UNL     1      50.012   1.849 100.245  1.00  0.00    -0.358 OA
HETATM   21  O5  UNL     1      48.505   5.141 103.097  1.00  0.00    -0.357 OA
HETATM   22  C20 UNL     1      48.214   2.975 105.668  1.00  0.00     0.019 C 
HETATM   23  O6  UNL     1      47.738   2.154 103.056  1.00  0.00    -0.362 OA
ENDROOT
BRANCH  13  24
HETATM   24  C17 UNL     1      48.480   3.321  98.907  1.00  0.00     0.022 C 
HETATM   25  C18 UNL     1      47.474   4.475  98.940  1.00  0.00     0.013 C 
HETATM   26  C19 UNL     1      49.585   3.609  97.888  1.00  0.00     0.013 C 
ENDBRANCH  13  24
TORSDOF 1
ENDMDL
