MODEL 1
REMARK VINA RESULT:      -7.1      0.000      0.000
REMARK  7 active torsions:
REMARK  status: ('A' for Active; 'I' for Inactive)
REMARK    1  A    between atoms: O1_1  and  C1_2 
REMARK    2  A    between atoms: C1_2  and  C2_3 
REMARK    3  A    between atoms: C2_3  and  C3_5 
REMARK    4  A    between atoms: C2_3  and  C4_6 
REMARK    5  A    between atoms: C4_6  and  O3_7 
REMARK    6  A    between atoms: C13_16  and  C14_17 
REMARK    7  A    between atoms: N1_20  and  C18_22 
ROOT
HETATM    1  O1  UNL     1      49.776   2.898 104.031  1.00  0.00    -0.315 OA
HETATM    2  C10 UNL     1      48.807   4.281 101.523  1.00  0.00     0.036 A 
HETATM    3  C11 UNL     1      47.480   4.094 102.257  1.00  0.00     0.036 A 
HETATM    4  C12 UNL     1      47.121   2.619 102.083  1.00  0.00     0.193 A 
HETATM    5  C13 UNL     1      47.801   1.758 103.168  1.00  0.00     0.066 A 
HETATM    6  C14 UNL     1      49.340   1.823 103.169  1.00  0.00     0.136 A 
HETATM    7  C15 UNL     1      49.969   2.069 101.785  1.00  0.00     0.066 C 
HETATM    8  C16 UNL     1      49.097   2.928 100.848  1.00  0.00     0.193 A 
HETATM    9  N1  UNL     1      47.691   2.275 100.681  1.00  0.00    -0.059 N 
HETATM   10  C17 UNL     1      47.766   0.752 100.402  1.00  0.00     0.274 C 
HETATM   11 BR1  UNL     1      48.437   3.595 102.874  1.00  0.00     0.000 Br
ENDROOT
BRANCH   1  12
HETATM   12  C1  UNL     1      49.795   2.640 105.374  1.00  0.00     0.270 C 
HETATM   13  O2  UNL     1      48.946   3.039 106.160  1.00  0.00    -0.264 OA
BRANCH  12  14
HETATM   14  C2  UNL     1      51.010   1.817 105.766  1.00  0.00     0.142 C 
BRANCH  14  15
HETATM   15  C3  UNL     1      50.605   0.635 106.639  1.00  0.00    -0.043 A 
HETATM   16  C5  UNL     1      50.739   0.630 108.035  1.00  0.00     0.008 A 
HETATM   17  C6  UNL     1      50.327  -0.473 108.787  1.00  0.00     0.001 A 
HETATM   18  C7  UNL     1      49.779  -1.587 108.157  1.00  0.00     0.000 A 
HETATM   19  C8  UNL     1      49.644  -1.604 106.772  1.00  0.00     0.001 A 
HETATM   20  C9  UNL     1      50.054  -0.502 106.019  1.00  0.00     0.008 A 
ENDBRANCH  14  15
BRANCH  14  21
HETATM   21  C4  UNL     1      52.057   2.791 106.326  1.00  0.00     0.183 C 
BRANCH  21  22
HETATM   22  O3  UNL     1      51.830   4.130 105.905  1.00  0.00    -0.400 OA
HETATM   23  H4  UNL     1      50.939   4.189 105.515  1.00  0.00     0.209 HD
ENDBRANCH  21  22
ENDBRANCH  14  21
ENDBRANCH  12  14
ENDBRANCH   1  12
BRANCH   9  24
HETATM   24  C18 UNL     1      46.843   2.832  99.443  1.00  0.00     0.183 C 
HETATM   25  C19 UNL     1      47.698   2.941  98.176  1.00  0.00     0.040 C 
HETATM   26  C20 UNL     1      45.529   2.123  99.129  1.00  0.00     0.040 C 
ENDBRANCH   9  24
TORSDOF 7
ENDMDL
