MODEL 1
REMARK VINA RESULT:      -8.5      0.000      0.000
REMARK  7 active torsions:
REMARK  status: ('A' for Active; 'I' for Inactive)
REMARK    1  A    between atoms: C4_4  and  O1_11 
REMARK    2  A    between atoms: C5_5  and  C11_12 
REMARK       I    between atoms: C11_12  and  N1_13 
REMARK    3  A    between atoms: N1_13  and  N2_15 
REMARK    4  A    between atoms: C12_16  and  C13_17 
REMARK    5  A    between atoms: C15_19  and  O5_25 
REMARK    6  A    between atoms: C16_20  and  O4_24 
REMARK    7  A    between atoms: C18_22  and  O3_23 
ROOT
HETATM    1  C11 UNL     1      50.433   5.812 103.926  1.00  0.00     0.274 C 
HETATM    2  N1  UNL     1      51.288   6.767 103.391  1.00  0.00    -0.243 N 
HETATM    3  O2  UNL     1      49.324   5.528 103.478  1.00  0.00    -0.266 OA
HETATM    4  H8  UNL     1      52.249   6.762 103.736  1.00  0.00     0.192 HD
ENDROOT
BRANCH   2   5
HETATM    5  N2  UNL     1      51.117   7.435 102.205  1.00  0.00    -0.183 NA
HETATM    6  C12 UNL     1      52.162   7.643 101.465  1.00  0.00     0.153 C 
BRANCH   6   7
HETATM    7  C13 UNL     1      52.062   8.406 100.201  1.00  0.00     0.019 A 
HETATM    8  C14 UNL     1      53.011   9.412  99.972  1.00  0.00     0.055 A 
HETATM    9  C15 UNL     1      52.942  10.142  98.791  1.00  0.00     0.099 A 
HETATM   10  C16 UNL     1      51.948   9.877  97.849  1.00  0.00     0.101 A 
HETATM   11  C17 UNL     1      51.003   8.885  98.068  1.00  0.00     0.076 A 
HETATM   12  C18 UNL     1      51.061   8.149  99.250  1.00  0.00     0.080 A 
BRANCH   9  13
HETATM   13  O5  UNL     1      53.834  11.140  98.504  1.00  0.00    -0.358 OA
HETATM   14  H14 UNL     1      53.494  11.975  98.871  1.00  0.00     0.217 HD
ENDBRANCH   9  13
BRANCH  10  15
HETATM   15  O4  UNL     1      51.897  10.602  96.694  1.00  0.00    -0.358 OA
HETATM   16  H13 UNL     1      51.142  11.212  96.815  1.00  0.00     0.217 HD
ENDBRANCH  10  15
BRANCH  12  17
HETATM   17  O3  UNL     1      50.103   7.185  99.419  1.00  0.00    -0.360 OA
HETATM   18  H12 UNL     1      50.570   6.342  99.614  1.00  0.00     0.217 HD
ENDBRANCH  12  17
ENDBRANCH   6   7
ENDBRANCH   2   5
BRANCH   1  19
HETATM   19  C5  UNL     1      50.934   5.084 105.141  1.00  0.00     0.067 A 
HETATM   20  C4  UNL     1      51.774   5.646 106.113  1.00  0.00     0.082 A 
HETATM   21  C3  UNL     1      52.192   4.895 107.218  1.00  0.00     0.049 A 
HETATM   22  C2  UNL     1      51.783   3.563 107.374  1.00  0.00    -0.023 A 
HETATM   23  C1  UNL     1      50.940   2.980 106.400  1.00  0.00    -0.025 A 
HETATM   24  C10 UNL     1      52.192   2.793 108.476  1.00  0.00     0.012 A 
HETATM   25  C6  UNL     1      50.529   3.748 105.299  1.00  0.00     0.032 A 
HETATM   26  C7  UNL     1      50.531   1.645 106.555  1.00  0.00     0.012 A 
HETATM   27  C8  UNL     1      50.947   0.895 107.656  1.00  0.00     0.001 A 
HETATM   28  C9  UNL     1      51.776   1.469 108.614  1.00  0.00     0.001 A 
BRANCH  20  29
HETATM   29  O1  UNL     1      52.210   6.940 105.998  1.00  0.00    -0.360 OA
HETATM   30  H7  UNL     1      51.513   7.542 106.321  1.00  0.00     0.217 HD
ENDBRANCH  20  29
ENDBRANCH   1  19
TORSDOF 7
ENDMDL
