MODEL 1
REMARK VINA RESULT:      -8.0      0.000      0.000
REMARK  1 active torsions:
REMARK  status: ('A' for Active; 'I' for Inactive)
REMARK    1  A    between atoms: N4_14  and  C13_17 
ROOT
HETATM    1  C1  UNL     1      54.628  13.688  97.762  1.00  0.00     0.002 A 
HETATM    2  C2  UNL     1      53.695  14.157  98.659  1.00  0.00     0.002 A 
HETATM    3  C3  UNL     1      52.609  13.397  99.029  1.00  0.00     0.034 A 
HETATM    4  C4  UNL     1      52.484  12.124  98.458  1.00  0.00     0.085 A 
HETATM    5  C5  UNL     1      53.413  11.646  97.560  1.00  0.00     0.062 A 
HETATM    6  C6  UNL     1      54.495  12.447  97.213  1.00  0.00     0.032 A 
HETATM    7  N1  UNL     1      51.566  11.166  98.607  1.00  0.00    -0.232 NA
HETATM    8  C7  UNL     1      51.862  10.096  97.847  1.00  0.00     0.122 A 
HETATM    9  N2  UNL     1      53.002  10.427  97.216  1.00  0.00    -0.341 N 
HETATM   10  C8  UNL     1      51.117   8.836  97.718  1.00  0.00     0.195 A 
HETATM   11  N3  UNL     1      51.507   7.821  98.650  1.00  0.00    -0.403 N 
HETATM   12  C9  UNL     1      51.358   8.148 100.017  1.00  0.00     0.137 A 
HETATM   13  C10 UNL     1      51.162   7.006 100.953  1.00  0.00     0.143 A 
HETATM   14  N4  UNL     1      50.405   5.923 100.420  1.00  0.00    -0.363 N 
HETATM   15  C11 UNL     1      50.102   5.832  99.010  1.00  0.00     0.143 C 
HETATM   16  C12 UNL     1      51.230   6.494  98.254  1.00  0.00     0.137 C 
HETATM   17 CL1  UNL     1      51.673   8.727  99.314  1.00  0.00    -0.145 Cl
HETATM   18 CL2  UNL     1      51.672   8.723  99.316  1.00  0.00    -0.145 Cl
HETATM   19 CL3  UNL     1      51.671   8.724  99.315  1.00  0.00    -0.145 Cl
HETATM   20  H5  UNL     1      53.516   9.817  96.540  1.00  0.00     0.167 HD
HETATM   21  H20 UNL     1      51.157   7.569  99.869  1.00  0.00     0.145 HD
HETATM   22  H21 UNL     1      51.159   7.572  99.867  1.00  0.00     0.145 HD
HETATM   23  H22 UNL     1      51.158   7.571  99.868  1.00  0.00     0.145 HD
ENDROOT
BRANCH  14  24
HETATM   24  C13 UNL     1      49.938   4.913 101.294  1.00  0.00     0.125 A 
HETATM   25  N5  UNL     1      50.090   3.595 100.978  1.00  0.00    -0.244 NA
HETATM   26  C14 UNL     1      49.660   2.607 101.782  1.00  0.00     0.119 A 
HETATM   27  C15 UNL     1      49.038   2.883 102.980  1.00  0.00     0.019 A 
HETATM   28  C16 UNL     1      48.860   4.195 103.348  1.00  0.00     0.005 A 
HETATM   29  C17 UNL     1      49.316   5.173 102.491  1.00  0.00     0.050 A 
ENDBRANCH  14  24
TORSDOF 1
ENDMDL
