MODEL 1
REMARK VINA RESULT:      -7.8      0.000      0.000
REMARK  0 active torsions:
REMARK  status: ('A' for Active; 'I' for Inactive)
ROOT
HETATM    1  C1  UNL     1      49.830   5.125 101.374  1.00  0.00     0.059 A 
HETATM    2  C2  UNL     1      49.315   3.906 101.010  1.00  0.00     0.059 A 
HETATM    3  N1  UNL     1      48.745   2.928 101.880  1.00  0.00    -0.262 N 
HETATM    4  C3  UNL     1      49.169   2.685 103.218  1.00  0.00     0.164 A 
HETATM    5  C4  UNL     1      49.698   3.596 104.135  1.00  0.00     0.082 A 
HETATM    6  N2  UNL     1      49.944   4.987 103.948  1.00  0.00    -0.320 N 
HETATM    7  C5  UNL     1      49.968   5.694 102.726  1.00  0.00     0.258 C 
HETATM    8  C6  UNL     1      50.322   5.945 100.385  1.00  0.00     0.019 A 
HETATM    9  C7  UNL     1      50.295   5.540  99.062  1.00  0.00     0.001 A 
HETATM   10  C8  UNL     1      49.777   4.305  98.686  1.00  0.00     0.002 A 
HETATM   11  C9  UNL     1      49.291   3.499  99.689  1.00  0.00     0.031 A 
HETATM   12  N3  UNL     1      49.009   1.420 103.580  1.00  0.00    -0.241 NA
HETATM   13  C10 UNL     1      49.342   0.993 104.804  1.00  0.00     0.119 A 
HETATM   14  C11 UNL     1      49.874   1.849 105.766  1.00  0.00     0.022 A 
HETATM   15  C12 UNL     1      50.042   3.166 105.392  1.00  0.00     0.035 A 
HETATM   16  O1  UNL     1      50.123   6.926 102.791  1.00  0.00    -0.267 OA
HETATM   17  C13 UNL     1      47.636   2.203 101.412  1.00  0.00     0.258 A 
HETATM   18  C14 UNL     1      47.022   1.033 102.125  1.00  0.00     0.375 A 
HETATM   19  O2  UNL     1      47.117   2.567 100.299  1.00  0.00    -0.271 OA
HETATM   20  N4  UNL     1      45.884   0.587 101.333  1.00  0.00     0.100 N 
HETATM   21  C15 UNL     1      45.176  -0.488 102.001  1.00  0.00     0.292 C 
HETATM   22  C16 UNL     1      45.924  -1.815 101.862  1.00  0.00     0.146 C 
HETATM   23  N5  UNL     1      45.853  -2.160 100.487  1.00  0.00    -0.413 N 
HETATM   24  C17 UNL     1      45.698  -1.087  99.584  1.00  0.00     0.146 C 
HETATM   25  C18 UNL     1      46.263   0.232  99.988  1.00  0.00     0.292 C 
HETATM   26  C19 UNL     1      46.568  -3.301 100.053  1.00  0.00     0.143 C 
HETATM   27 CL1  UNL     1      47.734   1.009 101.464  1.00  0.00    -0.145 Cl
HETATM   28 CL2  UNL     1      47.738   1.016 101.467  1.00  0.00    -0.145 Cl
HETATM   29  H1  UNL     1      50.125   5.514 104.839  1.00  0.00     0.169 HD
HETATM   30  H22 UNL     1      48.362   2.183 101.841  1.00  0.00     0.145 HD
HETATM   31  H23 UNL     1      48.357   2.176 101.838  1.00  0.00     0.145 HD
ENDROOT
TORSDOF 0
ENDMDL
