MODEL 1
REMARK VINA RESULT:      -8.4      0.000      0.000
REMARK  9 active torsions:
REMARK  status: ('A' for Active; 'I' for Inactive)
REMARK    1  A    between atoms: C1_1  and  C7_7 
REMARK    2  A    between atoms: C7_7  and  C8_8 
REMARK    3  A    between atoms: C8_8  and  C9_9 
REMARK    4  A    between atoms: C9_9  and  N1_10 
REMARK    5  A    between atoms: C9_9  and  C10_11 
REMARK    6  A    between atoms: C10_11  and  O2_13 
REMARK    7  A    between atoms: C12_15  and  N2_17 
REMARK    8  A    between atoms: C17_22  and  C22_27 
REMARK    9  A    between atoms: C22_27  and  O5_29 
ROOT
HETATM    1  N1  UNL     1      50.431   2.114 106.843  1.00  0.00    -0.396 N 
HETATM    2  C11 UNL     1      50.120   1.463 105.565  1.00  0.00     0.166 A 
HETATM    3  C12 UNL     1      48.884   2.195 104.969  1.00  0.00     0.243 A 
HETATM    4  C13 UNL     1      49.753  -0.015 105.672  1.00  0.00     0.042 C 
HETATM    5  O3  UNL     1      47.909   2.442 105.689  1.00  0.00    -0.271 OA
HETATM    6  O6  UNL     1      49.080   1.607 105.905  1.00  0.00    -0.411 OA
HETATM    7  H11 UNL     1      49.577   2.228 107.393  1.00  0.00     0.154 HD
HETATM    8  H31 UNL     1      49.413   1.883 105.037  1.00  0.00     0.205 HD
HETATM    9  H32 UNL     1      49.867   1.271 106.360  1.00  0.00     0.205 HD
ENDROOT
BRANCH   1  10
HETATM   10  C9  UNL     1      51.589   1.710 107.661  1.00  0.00     0.176 C 
BRANCH  10  11
HETATM   11  C8  UNL     1      52.529   2.899 107.950  1.00  0.00     0.040 C 
BRANCH  11  12
HETATM   12  C7  UNL     1      53.615   3.129 106.896  1.00  0.00     0.041 C 
BRANCH  12  13
HETATM   13  C1  UNL     1      53.494   4.497 106.271  1.00  0.00    -0.058 A 
HETATM   14  C2  UNL     1      52.236   5.079 106.068  1.00  0.00     0.007 A 
HETATM   15  C3  UNL     1      52.125   6.337 105.475  1.00  0.00     0.001 A 
HETATM   16  C4  UNL     1      53.271   7.023 105.074  1.00  0.00     0.000 A 
HETATM   17  C5  UNL     1      54.527   6.449 105.264  1.00  0.00     0.001 A 
HETATM   18  C6  UNL     1      54.640   5.192 105.858  1.00  0.00     0.007 A 
ENDBRANCH  12  13
ENDBRANCH  11  12
ENDBRANCH  10  11
BRANCH  10  19
HETATM   19  C10 UNL     1      51.299   0.814 108.879  1.00  0.00     0.163 C 
HETATM   20  O1  UNL     1      50.334   0.084 109.058  1.00  0.00    -0.648 OA
BRANCH  19  21
HETATM   21  O2  UNL     1      52.280   0.817 109.807  1.00  0.00    -0.775 OA
HETATM   22  H12 UNL     1      53.032   1.243 109.345  1.00  0.00     0.167 HD
ENDBRANCH  19  21
ENDBRANCH  10  19
ENDBRANCH   1  10
BRANCH   3  23
HETATM   23  N2  UNL     1      48.896   2.524 103.628  1.00  0.00    -0.331 N 
HETATM   24  C14 UNL     1      48.438   1.586 102.614  1.00  0.00     0.092 C 
HETATM   25  C15 UNL     1      48.591   2.358 101.304  1.00  0.00     0.011 C 
HETATM   26  C18 UNL     1      47.008   1.056 102.718  1.00  0.00     0.026 C 
HETATM   27  C16 UNL     1      49.855   3.175 101.545  1.00  0.00     0.043 C 
HETATM   28  C21 UNL     1      48.571   1.407 100.117  1.00  0.00     0.007 C 
HETATM   29  C17 UNL     1      49.663   3.620 103.005  1.00  0.00     0.186 C 
HETATM   30  C20 UNL     1      47.552   0.274 100.334  1.00  0.00     0.001 C 
HETATM   31  C19 UNL     1      46.453   0.635 101.343  1.00  0.00     0.002 C 
BRANCH  29  32
HETATM   32  C22 UNL     1      48.913   4.956 103.055  1.00  0.00     0.163 C 
HETATM   33  O4  UNL     1      47.713   5.132 103.181  1.00  0.00    -0.648 OA
BRANCH  32  34
HETATM   34  O5  UNL     1      49.744   6.009 102.910  1.00  0.00    -0.775 OA
HETATM   35  H30 UNL     1      49.139   6.780 102.873  1.00  0.00     0.167 HD
ENDBRANCH  32  34
ENDBRANCH  29  32
ENDBRANCH   3  23
TORSDOF 9
ENDMDL
