MODEL 1
REMARK VINA RESULT:      -7.9      0.000      0.000
REMARK  7 active torsions:
REMARK  status: ('A' for Active; 'I' for Inactive)
REMARK    1  A    between atoms: C2_2  and  C8_10 
REMARK    2  A    between atoms: C8_10  and  C9_11 
REMARK    3  A    between atoms: C10_12  and  C13_17 
REMARK    4  A    between atoms: C13_17  and  C14_18 
REMARK    5  A    between atoms: C16_20  and  O7_28 
REMARK    6  A    between atoms: C17_21  and  O6_26 
REMARK    7  A    between atoms: C18_22  and  O5_24 
ROOT
HETATM    1  C9  UNL     1      51.438   1.090 108.117  1.00  0.00     0.028 C 
HETATM    2  C10 UNL     1      50.371   0.935 107.036  1.00  0.00     0.096 C 
HETATM    3  C11 UNL     1      49.992  -0.516 107.216  1.00  0.00     0.263 C 
HETATM    4  O3  UNL     1      50.344  -0.939 108.467  1.00  0.00    -0.321 OA
HETATM    5  C12 UNL     1      50.927   0.146 109.185  1.00  0.00     0.184 C 
HETATM    6  O4  UNL     1      49.437  -1.225 106.394  1.00  0.00    -0.265 OA
ENDROOT
BRANCH   2   7
HETATM    7  C13 UNL     1      50.908   1.230 105.633  1.00  0.00     0.054 C 
BRANCH   7   8
HETATM    8  C14 UNL     1      49.862   1.889 104.758  1.00  0.00    -0.052 A 
HETATM    9  C15 UNL     1      49.899   3.273 104.534  1.00  0.00     0.047 A 
HETATM   10  C16 UNL     1      48.962   3.888 103.701  1.00  0.00     0.104 A 
HETATM   11  C17 UNL     1      47.957   3.099 103.116  1.00  0.00     0.135 A 
HETATM   12  C18 UNL     1      47.912   1.708 103.311  1.00  0.00     0.104 A 
HETATM   13  C19 UNL     1      48.868   1.113 104.139  1.00  0.00     0.047 A 
BRANCH  10  14
HETATM   14  O7  UNL     1      48.930   5.229 103.420  1.00  0.00    -0.353 OA
HETATM   15  C22 UNL     1      50.084   5.787 102.803  1.00  0.00     0.210 C 
ENDBRANCH  10  14
BRANCH  11  16
HETATM   16  O6  UNL     1      47.045   3.686 102.265  1.00  0.00    -0.351 OA
HETATM   17  C21 UNL     1      47.562   3.693 100.937  1.00  0.00     0.210 C 
ENDBRANCH  11  16
BRANCH  12  18
HETATM   18  O5  UNL     1      46.903   1.038 102.670  1.00  0.00    -0.353 OA
HETATM   19  C20 UNL     1      46.407  -0.143 103.283  1.00  0.00     0.210 C 
ENDBRANCH  12  18
ENDBRANCH   7   8
ENDBRANCH   2   7
BRANCH   1  20
HETATM   20  C8  UNL     1      51.603   2.534 108.599  1.00  0.00     0.046 C 
BRANCH  20  21
HETATM   21  C2  UNL     1      52.330   3.400 107.598  1.00  0.00    -0.055 A 
HETATM   22  C1  UNL     1      53.607   3.020 107.125  1.00  0.00     0.010 A 
HETATM   23  C6  UNL     1      54.301   3.816 106.209  1.00  0.00     0.040 A 
HETATM   24  C5  UNL     1      53.700   4.981 105.787  1.00  0.00     0.105 A 
HETATM   25  C4  UNL     1      52.460   5.359 106.242  1.00  0.00     0.105 A 
HETATM   26  O2  UNL     1      54.225   5.874 104.907  1.00  0.00    -0.323 OA
HETATM   27  C3  UNL     1      51.750   4.594 107.143  1.00  0.00     0.047 A 
HETATM   28  O1  UNL     1      52.048   6.538 105.703  1.00  0.00    -0.323 OA
HETATM   29  C7  UNL     1      53.171   6.857 104.856  1.00  0.00     0.352 A 
ENDBRANCH  20  21
ENDBRANCH   1  20
TORSDOF 7
ENDMDL
