MODEL 1
REMARK VINA RESULT:      -7.5      0.000      0.000
REMARK  5 active torsions:
REMARK  status: ('A' for Active; 'I' for Inactive)
REMARK    1  A    between atoms: C1_1  and  C7_7 
REMARK    2  A    between atoms: C13_16  and  O4_19 
REMARK    3  A    between atoms: C14_17  and  C16_20 
REMARK    4  A    between atoms: C19_25  and  O9_31 
REMARK    5  A    between atoms: C20_26  and  C22_28 
ROOT
HETATM    1  C1  UNL     1      49.147   2.530 103.255  1.00  0.00     0.091 A 
HETATM    2  C2  UNL     1      49.352   3.932 102.857  1.00  0.00     0.189 A 
HETATM    3  C3  UNL     1      48.815   4.330 101.531  1.00  0.00     0.057 A 
HETATM    4  C4  UNL     1      48.130   3.475 100.759  1.00  0.00     0.016 A 
HETATM    5  C5  UNL     1      47.884   2.084 101.159  1.00  0.00    -0.023 A 
HETATM    6  C6  UNL     1      48.470   1.679 102.456  1.00  0.00     0.034 A 
HETATM    7  O3  UNL     1      49.902   4.781 103.555  1.00  0.00    -0.287 OA
HETATM    8  C8  UNL     1      47.142   1.228 100.380  1.00  0.00    -0.005 A 
HETATM    9  C9  UNL     1      46.598   1.625  99.027  1.00  0.00    -0.023 A 
HETATM   10  C10 UNL     1      46.740  -0.123 100.918  1.00  0.00    -0.023 A 
HETATM   11  C11 UNL     1      45.224   1.435  98.775  1.00  0.00     0.015 A 
HETATM   12  C12 UNL     1      44.678   1.731  97.531  1.00  0.00     0.038 A 
HETATM   13  C13 UNL     1      45.475   2.248  96.523  1.00  0.00     0.082 A 
HETATM   14  C14 UNL     1      46.834   2.495  96.732  1.00  0.00     0.074 A 
HETATM   15  C15 UNL     1      47.389   2.139  97.985  1.00  0.00     0.033 A 
HETATM   16  C17 UNL     1      45.924  -0.208 102.062  1.00  0.00     0.015 A 
HETATM   17  C18 UNL     1      45.447  -1.444 102.515  1.00  0.00     0.038 A 
HETATM   18  C19 UNL     1      45.773  -2.602 101.815  1.00  0.00     0.082 A 
HETATM   19  C20 UNL     1      46.577  -2.561 100.662  1.00  0.00     0.074 A 
HETATM   20  C21 UNL     1      47.058  -1.305 100.227  1.00  0.00     0.033 A 
HETATM   21  N1  UNL     1      47.059   0.957 100.300  1.00  0.00    -0.084 N 
HETATM   22  N2  UNL     1      47.058   0.957 100.302  1.00  0.00    -0.084 N 
HETATM   23  N3  UNL     1      47.057   0.958 100.301  1.00  0.00    -0.084 N 
HETATM   24  H12 UNL     1      47.177   1.829  99.772  1.00  0.00     0.271 HD
HETATM   25  H13 UNL     1      47.649   0.987 101.140  1.00  0.00     0.271 HD
HETATM   26  H14 UNL     1      46.076   0.856 100.578  1.00  0.00     0.271 HD
HETATM   27  H15 UNL     1      47.332   0.158  99.714  1.00  0.00     0.271 HD
HETATM   28  H16 UNL     1      46.370   0.196 100.265  1.00  0.00     0.271 HD
HETATM   29  H17 UNL     1      47.787   0.729 100.989  1.00  0.00     0.271 HD
HETATM   30  H18 UNL     1      47.489   1.074  99.377  1.00  0.00     0.271 HD
HETATM   31  H19 UNL     1      46.590   1.828 100.572  1.00  0.00     0.271 HD
HETATM   32  H20 UNL     1      46.322   0.329 100.646  1.00  0.00     0.271 HD
HETATM   33  H21 UNL     1      46.679   1.563  99.564  1.00  0.00     0.271 HD
HETATM   34  H22 UNL     1      47.407   1.536 101.075  1.00  0.00     0.271 HD
HETATM   35  H23 UNL     1      47.829   0.400  99.918  1.00  0.00     0.271 HD
ENDROOT
BRANCH  14  36
HETATM   36  C16 UNL     1      47.655   3.187  95.674  1.00  0.00     0.212 C 
HETATM   37  O5  UNL     1      48.638   2.509  95.201  1.00  0.00    -0.644 OA
HETATM   38  O6  UNL     1      47.284   4.337  95.278  1.00  0.00    -0.644 OA
ENDBRANCH  14  36
BRANCH  13  39
HETATM   39  O4  UNL     1      44.877   2.492  95.313  1.00  0.00    -0.360 OA
HETATM   40  H7  UNL     1      43.949   2.765  95.542  1.00  0.00     0.217 HD
ENDBRANCH  13  39
BRANCH   1  41
HETATM   41  C7  UNL     1      49.744   2.006 104.548  1.00  0.00     0.213 C 
HETATM   42  O1  UNL     1      50.863   1.414 104.448  1.00  0.00    -0.644 OA
HETATM   43  O2  UNL     1      49.107   2.314 105.595  1.00  0.00    -0.644 OA
ENDBRANCH   1  41
BRANCH  19  44
HETATM   44  C22 UNL     1      46.915  -3.828  99.902  1.00  0.00     0.212 C 
HETATM   45  O7  UNL     1      45.960  -4.514  99.403  1.00  0.00    -0.644 OA
HETATM   46  O8  UNL     1      48.167  -4.113  99.825  1.00  0.00    -0.644 OA
ENDBRANCH  19  44
BRANCH  18  47
HETATM   47  O9  UNL     1      45.264  -3.787 102.297  1.00  0.00    -0.360 OA
HETATM   48  H11 UNL     1      44.690  -3.511 103.067  1.00  0.00     0.217 HD
ENDBRANCH  18  47
TORSDOF 5
ENDMDL
