MODEL 1
REMARK VINA RESULT:      -7.1      0.000      0.000
REMARK  6 active torsions:
REMARK  status: ('A' for Active; 'I' for Inactive)
REMARK    1  A    between atoms: C4_4  and  C7_7 
REMARK    2  A    between atoms: C7_7  and  N1_8 
REMARK    3  A    between atoms: N2_12  and  C21_27 
REMARK    4  A    between atoms: C12_16  and  C13_17 
REMARK    5  A    between atoms: C16_20  and  O4_25 
REMARK    6  A    between atoms: C21_27  and  C22_28 
ROOT
HETATM    1  N1  UNL     1      49.063   2.133 101.130  1.00  0.00    -0.261 N 
HETATM    2  C8  UNL     1      48.240   1.067 100.820  1.00  0.00     0.267 C 
HETATM    3  C9  UNL     1      47.151   0.827 101.787  1.00  0.00     0.101 C 
HETATM    4  C10 UNL     1      47.264   1.364 103.160  1.00  0.00     0.267 C 
HETATM    5  N2  UNL     1      48.255   2.312 103.345  1.00  0.00    -0.261 N 
HETATM    6  C11 UNL     1      49.143   2.745 102.370  1.00  0.00     0.335 C 
HETATM    7  O1  UNL     1      49.988   3.613 102.606  1.00  0.00    -0.246 OA
HETATM    8  O2  UNL     1      48.412   0.350  99.836  1.00  0.00    -0.267 OA
HETATM    9  C12 UNL     1      46.011   0.174 101.481  1.00  0.00     0.035 C 
HETATM   10  O3  UNL     1      46.513   0.980 104.055  1.00  0.00    -0.267 OA
ENDROOT
BRANCH   9  11
HETATM   11  C13 UNL     1      45.633  -0.355 100.160  1.00  0.00    -0.023 A 
HETATM   12  C14 UNL     1      45.718  -1.742  99.905  1.00  0.00    -0.049 A 
HETATM   13  C15 UNL     1      45.379  -2.232  98.634  1.00  0.00     0.044 A 
HETATM   14  C20 UNL     1      46.202  -2.710 100.952  1.00  0.00     0.049 C 
HETATM   15  C16 UNL     1      44.951  -1.357  97.643  1.00  0.00     0.066 A 
HETATM   16  C17 UNL     1      44.847   0.006  97.889  1.00  0.00     0.044 A 
HETATM   17  C18 UNL     1      45.178   0.525  99.149  1.00  0.00    -0.049 A 
HETATM   18  C19 UNL     1      45.058   2.010  99.373  1.00  0.00     0.049 C 
BRANCH  15  19
HETATM   19  O4  UNL     1      44.619  -1.803  96.397  1.00  0.00    -0.361 OA
HETATM   20  H14 UNL     1      43.667  -1.672  96.266  1.00  0.00     0.217 HD
ENDBRANCH  15  19
ENDBRANCH   9  11
BRANCH   1  21
HETATM   21  C7  UNL     1      49.960   2.601 100.078  1.00  0.00     0.175 C 
BRANCH  21  22
HETATM   22  C4  UNL     1      49.173   3.233  98.949  1.00  0.00    -0.040 A 
HETATM   23  C3  UNL     1      49.472   2.924  97.614  1.00  0.00     0.009 A 
HETATM   24  C2  UNL     1      48.713   3.466  96.577  1.00  0.00     0.001 A 
HETATM   25  C1  UNL     1      47.645   4.316  96.862  1.00  0.00     0.000 A 
HETATM   26  C6  UNL     1      47.333   4.624  98.184  1.00  0.00     0.001 A 
HETATM   27  C5  UNL     1      48.094   4.086  99.224  1.00  0.00     0.009 A 
ENDBRANCH  21  22
ENDBRANCH   1  21
BRANCH   5  28
HETATM   28  C21 UNL     1      48.327   2.954 104.655  1.00  0.00     0.175 C 
BRANCH  28  29
HETATM   29  C22 UNL     1      49.426   2.368 105.516  1.00  0.00    -0.040 A 
HETATM   30  C23 UNL     1      49.555   0.979 105.664  1.00  0.00     0.009 A 
HETATM   31  C24 UNL     1      50.557   0.441 106.475  1.00  0.00     0.001 A 
HETATM   32  C25 UNL     1      51.437   1.284 107.149  1.00  0.00     0.000 A 
HETATM   33  C26 UNL     1      51.315   2.665 107.016  1.00  0.00     0.001 A 
HETATM   34  C27 UNL     1      50.315   3.204 106.206  1.00  0.00     0.009 A 
ENDBRANCH  28  29
ENDBRANCH   5  28
TORSDOF 6
ENDMDL
