MODEL 1
REMARK VINA RESULT:      -9.3      0.000      0.000
REMARK  2 active torsions:
REMARK  status: ('A' for Active; 'I' for Inactive)
REMARK    1  A    between atoms: N1_10  and  C14_19 
REMARK    2  A    between atoms: C11_13  and  C13_15 
ROOT
HETATM    1  C1  UNL     1      49.246  -2.002 106.891  1.00  0.00     0.002 A 
HETATM    2  C2  UNL     1      49.484  -2.157 108.231  1.00  0.00     0.002 A 
HETATM    3  C3  UNL     1      50.192  -1.126 108.826  1.00  0.00     0.021 A 
HETATM    4  C4  UNL     1      50.629  -0.029 108.156  1.00  0.00     0.032 A 
HETATM    5  C5  UNL     1      50.388   0.127 106.809  1.00  0.00     0.052 A 
HETATM    6  C6  UNL     1      49.681  -0.889 106.171  1.00  0.00     0.031 A 
HETATM    7  S1  UNL     1      51.533   1.185 109.049  1.00  0.00    -0.086 SA
HETATM    8  C7  UNL     1      51.731   2.576 107.942  1.00  0.00     0.032 A 
HETATM    9  C8  UNL     1      51.363   2.451 106.630  1.00  0.00     0.053 A 
HETATM   10  N1  UNL     1      50.739   1.309 106.071  1.00  0.00    -0.345 N 
HETATM   11  C9  UNL     1      52.249   3.749 108.455  1.00  0.00     0.022 A 
HETATM   12  C10 UNL     1      52.420   4.860 107.649  1.00  0.00     0.017 A 
HETATM   13  C11 UNL     1      52.066   4.785 106.332  1.00  0.00     0.050 A 
HETATM   14  C12 UNL     1      51.552   3.605 105.855  1.00  0.00     0.047 A 
ENDROOT
BRANCH  10  15
HETATM   15  C14 UNL     1      50.567   1.296 104.638  1.00  0.00     0.131 A 
HETATM   16  C15 UNL     1      49.078   1.568 104.331  1.00  0.00     0.050 A 
HETATM   17  C16 UNL     1      48.957   1.563 102.821  1.00  0.00     0.274 A 
HETATM   18 CL1  UNL     1      49.446   2.110 103.764  1.00  0.00    -0.145 Cl
HETATM   19 CL2  UNL     1      49.445   2.111 103.760  1.00  0.00    -0.145 Cl
HETATM   20  H25 UNL     1      49.770   1.514 104.953  1.00  0.00     0.145 HD
HETATM   21  H26 UNL     1      49.771   1.512 104.957  1.00  0.00     0.145 HD
HETATM   22  N2  UNL     1      49.651   2.652 102.210  1.00  0.00     0.091 N 
HETATM   23  C17 UNL     1      48.969   3.922 102.418  1.00  0.00     0.291 C 
HETATM   24  C20 UNL     1      49.812   2.464 100.796  1.00  0.00     0.291 C 
HETATM   25  C18 UNL     1      47.616   3.921 101.741  1.00  0.00     0.146 C 
HETATM   26  N3  UNL     1      47.590   3.454 100.412  1.00  0.00    -0.413 N 
HETATM   27  C19 UNL     1      48.530   2.485 100.037  1.00  0.00     0.146 C 
HETATM   28  C21 UNL     1      47.154   4.346  99.394  1.00  0.00     0.143 C 
ENDBRANCH  10  15
BRANCH  13  29
HETATM   29  C13 UNL     1      52.192   5.943 105.401  1.00  0.00     0.417 C 
HETATM   30  F1  UNL     1      51.866   7.058 106.140  1.00  0.00    -0.166 F 
HETATM   31  F2  UNL     1      51.243   5.768 104.405  1.00  0.00    -0.166 F 
HETATM   32  F3  UNL     1      53.449   5.977 104.863  1.00  0.00    -0.166 F 
ENDBRANCH  13  29
TORSDOF 2
ENDMDL
