MODEL 1
REMARK VINA RESULT:      -6.8      0.000      0.000
REMARK  10 active torsions:
REMARK  status: ('A' for Active; 'I' for Inactive)
REMARK    1  A    between atoms: C2_2  and  C3_3 
REMARK    2  A    between atoms: C3_3  and  C5_5 
REMARK    3  A    between atoms: C3_3  and  N6_25 
REMARK    4  A    between atoms: C5_5  and  O1_6 
REMARK    5  A    between atoms: C7_9  and  O3_10 
REMARK    6  A    between atoms: C7_9  and  C8_11 
REMARK    7  A    between atoms: O3_10  and  C9_13 
REMARK    8  A    between atoms: C8_11  and  O4_12 
REMARK    9  A    between atoms: C9_13  and  N1_14 
REMARK   10  A    between atoms: C13_20  and  N5_24 
ROOT
HETATM    1  O1  UNL     1      51.044   7.566 101.617  1.00  0.00    -0.317 OA
HETATM    2  C6  UNL     1      51.760   6.752 102.555  1.00  0.00     0.213 A 
HETATM    3  C7  UNL     1      50.842   6.272 103.658  1.00  0.00     0.171 A 
HETATM    4 CL1  UNL     1      52.116   7.463 102.772  1.00  0.00    -0.145 Cl
HETATM    5  H23 UNL     1      52.633   6.823 103.882  1.00  0.00     0.145 HD
ENDROOT
BRANCH   3   6
HETATM    6  O3  UNL     1      51.573   5.504 104.519  1.00  0.00    -0.362 OA
BRANCH   6   7
HETATM    7  C9  UNL     1      51.490   5.881 105.846  1.00  0.00     0.301 C 
BRANCH   7   8
HETATM    8  N1  UNL     1      51.707   4.691 106.653  1.00  0.00    -0.303 N 
HETATM    9  C10 UNL     1      51.126   3.484 106.489  1.00  0.00     0.160 A 
HETATM   10  C11 UNL     1      51.617   2.653 107.473  1.00  0.00     0.173 A 
HETATM   11  N3  UNL     1      50.218   3.003 105.590  1.00  0.00    -0.172 N 
HETATM   12  N2  UNL     1      52.480   3.394 108.196  1.00  0.00    -0.234 NA
HETATM   13  C14 UNL     1      51.170   1.360 107.510  1.00  0.00     0.316 A 
HETATM   14  C12 UNL     1      52.543   4.638 107.706  1.00  0.00     0.214 A 
HETATM   15  N4  UNL     1      50.273   0.934 106.601  1.00  0.00    -0.021 NA
HETATM   16  O5  UNL     1      51.627   0.611 108.415  1.00  0.00    -0.263 OA
HETATM   17  C13 UNL     1      49.779   1.734 105.629  1.00  0.00     0.703 A 
HETATM   18  H18 UNL     1      49.856   3.644 104.854  1.00  0.00     0.186 HD
BRANCH  17  19
HETATM   19  N5  UNL     1      48.832   1.236 104.691  1.00  0.00    -0.233 N 
HETATM   20  H19 UNL     1      49.063   0.555 103.936  1.00  0.00     0.174 HD
HETATM   21  H20 UNL     1      47.846   1.570 104.757  1.00  0.00     0.174 HD
ENDBRANCH  17  19
ENDBRANCH   7   8
ENDBRANCH   6   7
ENDBRANCH   3   6
BRANCH   3  22
HETATM   22  C8  UNL     1      49.706   5.528 102.998  1.00  0.00     0.198 C 
BRANCH  22  23
HETATM   23  O4  UNL     1      50.045   4.175 102.781  1.00  0.00    -0.398 OA
HETATM   24  H14 UNL     1      50.599   3.926 103.578  1.00  0.00     0.209 HD
ENDBRANCH  22  23
ENDBRANCH   3  22
BRANCH   1  25
HETATM   25  C5  UNL     1      51.738   8.091 100.538  1.00  0.00     0.292 C 
HETATM   26  O2  UNL     1      52.303   7.286  99.732  1.00  0.00    -0.263 OA
BRANCH  25  27
HETATM   27  C3  UNL     1      51.870   9.526 100.253  1.00  0.00     0.319 C 
BRANCH  27  28
HETATM   28  C2  UNL     1      51.899   9.839  98.774  1.00  0.00     0.020 C 
HETATM   29  C1  UNL     1      53.017  10.762  98.389  1.00  0.00     0.012 C 
HETATM   30  C4  UNL     1      50.578  10.380  98.289  1.00  0.00     0.012 C 
ENDBRANCH  27  28
BRANCH  27  31
HETATM   31  N6  UNL     1      53.109   9.993 100.833  1.00  0.00     0.092 N 
HETATM   32  H21 UNL     1      52.871  10.635 101.631  1.00  0.00     0.313 HD
HETATM   33  H22 UNL     1      53.577   9.155 101.257  1.00  0.00     0.313 HD
ENDBRANCH  27  31
ENDBRANCH  25  27
ENDBRANCH   1  25
TORSDOF 10
ENDMDL
