MODEL 1
REMARK VINA RESULT:      -9.2      0.000      0.000
REMARK  6 active torsions:
REMARK  status: ('A' for Active; 'I' for Inactive)
REMARK    1  A    between atoms: N1_4  and  C15_23 
REMARK       I    between atoms: N2_6  and  C5_7 
REMARK    2  A    between atoms: C5_7  and  C6_8 
REMARK    3  A    between atoms: C6_8  and  N3_10 
REMARK       I    between atoms: N3_10  and  C7_11 
REMARK    4  A    between atoms: C7_11  and  C8_12 
REMARK    5  A    between atoms: C10_15  and  C14_19 
REMARK    6  A    between atoms: C15_23  and  C16_24 
ROOT
HETATM    1  C1  UNL     1      51.561   6.720 102.162  1.00  0.00     0.103 C 
HETATM    2  C2  UNL     1      52.223   8.119 101.932  1.00  0.00     0.046 C 
HETATM    3  C3  UNL     1      52.568   7.913 100.419  1.00  0.00     0.119 C 
HETATM    4  N1  UNL     1      51.424   7.258  99.902  1.00  0.00    -0.406 N 
HETATM    5  C4  UNL     1      50.648   6.700 100.988  1.00  0.00     0.142 C 
HETATM    6  N2  UNL     1      51.015   6.631 103.480  1.00  0.00    -0.353 N 
HETATM    7  C5  UNL     1      51.913   6.275 104.527  1.00  0.00     0.235 C 
HETATM    8  O1  UNL     1      53.135   6.075 104.156  1.00  0.00    -0.272 OA
HETATM    9 CL2  UNL     1      50.066   5.678 103.634  1.00  0.00    -0.145 Cl
HETATM   10  H8  UNL     1      50.017   6.795 103.749  1.00  0.00     0.163 HD
HETATM   11  H22 UNL     1      50.860   5.754 102.503  1.00  0.00     0.145 HD
ENDROOT
BRANCH   7  12
HETATM   12  C6  UNL     1      51.683   6.104 105.932  1.00  0.00     0.225 C 
BRANCH  12  13
HETATM   13  N3  UNL     1      51.344   4.845 106.483  1.00  0.00    -0.348 N 
HETATM   14  C7  UNL     1      52.264   3.945 107.106  1.00  0.00     0.252 C 
HETATM   15  O2  UNL     1      53.471   4.378 107.111  1.00  0.00    -0.268 OA
HETATM   16  H11 UNL     1      50.329   4.507 106.438  1.00  0.00     0.163 HD
BRANCH  14  17
HETATM   17  C8  UNL     1      51.929   2.671 107.695  1.00  0.00     0.032 A 
HETATM   18  C9  UNL     1      51.252   1.775 106.895  1.00  0.00     0.033 A 
HETATM   19  C10 UNL     1      50.883   0.511 107.334  1.00  0.00     0.048 A 
HETATM   20  C11 UNL     1      51.212   0.161 108.627  1.00  0.00     0.016 A 
HETATM   21  C12 UNL     1      51.883   1.005 109.472  1.00  0.00     0.002 A 
HETATM   22  C13 UNL     1      52.229   2.262 108.973  1.00  0.00     0.017 A 
BRANCH  19  23
HETATM   23  C14 UNL     1      50.149  -0.449 106.489  1.00  0.00     0.417 C 
HETATM   24  F1  UNL     1      49.336  -1.214 107.354  1.00  0.00    -0.166 F 
HETATM   25  F2  UNL     1      50.967  -1.323 105.784  1.00  0.00    -0.166 F 
HETATM   26  F3  UNL     1      49.270   0.219 105.678  1.00  0.00    -0.166 F 
ENDBRANCH  19  23
ENDBRANCH  14  17
ENDBRANCH  12  13
ENDBRANCH   7  12
BRANCH   4  27
HETATM   27  C15 UNL     1      51.439   6.625  98.679  1.00  0.00     0.155 C 
BRANCH  27  28
HETATM   28  C16 UNL     1      50.487   7.051  97.629  1.00  0.00    -0.041 A 
HETATM   29  C17 UNL     1      49.919   8.330  97.670  1.00  0.00     0.010 A 
HETATM   30  C18 UNL     1      49.025   8.734  96.696  1.00  0.00     0.024 A 
HETATM   31  C19 UNL     1      48.663   7.904  95.654  1.00  0.00     0.034 A 
HETATM   32  C20 UNL     1      49.223   6.650  95.617  1.00  0.00     0.024 A 
HETATM   33 CL1  UNL     1      47.529   8.406  94.415  1.00  0.00    -0.084 Cl
HETATM   34  C21 UNL     1      50.123   6.235  96.599  1.00  0.00     0.010 A 
ENDBRANCH  27  28
ENDBRANCH   4  27
TORSDOF 6
ENDMDL
