MODEL 1
REMARK VINA RESULT:      -8.2      0.000      0.000
REMARK  1 active torsions:
REMARK  status: ('A' for Active; 'I' for Inactive)
REMARK    1  A    between atoms: C10_11  and  O2_21 
ROOT
HETATM    1  C1  UNL     1      51.762   0.997 109.345  1.00  0.00     0.002 A 
HETATM    2  C2  UNL     1      52.282   2.245 109.682  1.00  0.00     0.001 A 
HETATM    3  C3  UNL     1      52.217   3.294 108.767  1.00  0.00     0.017 A 
HETATM    4  C4  UNL     1      51.629   3.090 107.512  1.00  0.00     0.037 A 
HETATM    5  C5  UNL     1      51.124   1.837 107.150  1.00  0.00     0.029 A 
HETATM    6  C6  UNL     1      51.186   0.795 108.088  1.00  0.00     0.025 A 
HETATM    7  C7  UNL     1      51.564   4.197 106.534  1.00  0.00     0.198 C 
HETATM    8  C8  UNL     1      50.682   4.039 105.342  1.00  0.00     0.071 A 
HETATM    9  C9  UNL     1      50.167   2.752 105.055  1.00  0.00     0.045 A 
HETATM   10  N1  UNL     1      50.547   1.627 105.865  1.00  0.00    -0.252 NA
HETATM   11  C10 UNL     1      50.344   5.126 104.522  1.00  0.00     0.084 A 
HETATM   12  C11 UNL     1      49.492   4.952 103.434  1.00  0.00     0.075 A 
HETATM   13  C12 UNL     1      48.943   3.700 103.171  1.00  0.00     0.085 A 
HETATM   14  C13 UNL     1      49.244   2.602 103.985  1.00  0.00     0.020 A 
HETATM   15  O1  UNL     1      48.084   3.656 102.106  1.00  0.00    -0.336 OA
HETATM   16  C14 UNL     1      47.627   2.370 101.639  1.00  0.00     0.078 C 
HETATM   17  C15 UNL     1      47.773   1.249 102.636  1.00  0.00     0.012 C 
HETATM   18  C16 UNL     1      48.519   1.354 103.740  1.00  0.00     0.015 C 
HETATM   19  C17 UNL     1      46.142   2.556 101.302  1.00  0.00     0.051 C 
HETATM   20  C18 UNL     1      48.407   2.039 100.363  1.00  0.00     0.051 C 
HETATM   21  O3  UNL     1      52.238   5.199 106.740  1.00  0.00    -0.286 OA
HETATM   22  C19 UNL     1      51.429   0.721 105.090  1.00  0.00     0.123 C 
ENDROOT
BRANCH  11  23
HETATM   23  O2  UNL     1      50.820   6.381 104.778  1.00  0.00    -0.360 OA
HETATM   24  H14 UNL     1      50.475   7.015 104.131  1.00  0.00     0.217 HD
ENDBRANCH  11  23
TORSDOF 1
ENDMDL
