MODEL 1
REMARK VINA RESULT:      -6.0      0.000      0.000
REMARK  14 active torsions:
REMARK  status: ('A' for Active; 'I' for Inactive)
REMARK    1  A    between atoms: C2_2  and  O2_7 
REMARK    2  A    between atoms: C3_3  and  C6_8 
REMARK    3  A    between atoms: C4_4  and  C14_16 
REMARK    4  A    between atoms: C6_8  and  C7_9 
REMARK    5  A    between atoms: C7_9  and  C8_10 
REMARK    6  A    between atoms: C8_10  and  C9_11 
REMARK    7  A    between atoms: C9_11  and  C10_12 
REMARK    8  A    between atoms: C10_12  and  C11_13 
REMARK    9  A    between atoms: C11_13  and  C12_14 
REMARK   10  A    between atoms: C12_14  and  C13_15 
REMARK   11  A    between atoms: C13_15  and  O4_20 
REMARK   12  A    between atoms: C14_16  and  C15_17 
REMARK   13  A    between atoms: C15_17  and  C16_18 
REMARK   14  A    between atoms: C16_18  and  O6_22 
ROOT
HETATM    1  C1  UNL     1      47.319   1.359 103.767  1.00  0.00     0.110 C 
HETATM    2  C2  UNL     1      48.683   1.372 103.090  1.00  0.00     0.130 C 
HETATM    3  C3  UNL     1      49.522   2.431 103.830  1.00  0.00     0.026 C 
HETATM    4  C4  UNL     1      48.506   3.545 104.184  1.00  0.00     0.062 C 
HETATM    5  C5  UNL     1      47.228   2.749 104.338  1.00  0.00     0.134 C 
HETATM    6  O1  UNL     1      46.231   3.181 104.910  1.00  0.00    -0.297 OA
ENDROOT
BRANCH   3   7
HETATM    7  C6  UNL     1      50.190   1.818 105.078  1.00  0.00     0.015 C 
BRANCH   7   8
HETATM    8  C7  UNL     1      50.262   2.795 106.255  1.00  0.00     0.079 C 
BRANCH   8   9
HETATM    9  C8  UNL     1      51.680   3.287 106.504  1.00  0.00     0.127 C 
HETATM   10  O3  UNL     1      52.130   4.296 105.962  1.00  0.00    -0.298 OA
BRANCH   9  11
HETATM   11  C9  UNL     1      52.532   2.483 107.467  1.00  0.00     0.078 C 
BRANCH  11  12
HETATM   12  C10 UNL     1      51.731   1.860 108.605  1.00  0.00     0.008 C 
BRANCH  12  13
HETATM   13  C11 UNL     1      51.577   0.337 108.536  1.00  0.00     0.011 C 
BRANCH  13  14
HETATM   14  C12 UNL     1      50.125  -0.126 108.448  1.00  0.00     0.110 C 
BRANCH  14  15
HETATM   15  C13 UNL     1      49.980  -1.377 107.626  1.00  0.00     0.139 C 
HETATM   16  O5  UNL     1      50.496  -1.580 106.540  1.00  0.00    -0.650 OA
BRANCH  15  17
HETATM   17  O4  UNL     1      49.235  -2.327 108.217  1.00  0.00    -0.776 OA
HETATM   18  H23 UNL     1      48.319  -2.127 107.927  1.00  0.00     0.167 HD
ENDBRANCH  15  17
ENDBRANCH  14  15
ENDBRANCH  13  14
ENDBRANCH  12  13
ENDBRANCH  11  12
ENDBRANCH   9  11
ENDBRANCH   8   9
ENDBRANCH   7   8
ENDBRANCH   3   7
BRANCH   2  19
HETATM   19  O2  UNL     1      48.559   1.758 101.726  1.00  0.00    -0.395 OA
HETATM   20  H12 UNL     1      47.622   1.947 101.545  1.00  0.00     0.210 HD
ENDBRANCH   2  19
BRANCH   4  21
HETATM   21  C14 UNL     1      48.409   4.627 103.097  1.00  0.00     0.023 C 
BRANCH  21  22
HETATM   22  C15 UNL     1      49.746   4.953 102.423  1.00  0.00     0.111 C 
BRANCH  22  23
HETATM   23  C16 UNL     1      50.339   6.258 102.894  1.00  0.00     0.139 C 
HETATM   24  O7  UNL     1      50.701   7.196 102.203  1.00  0.00    -0.650 OA
BRANCH  23  25
HETATM   25  O6  UNL     1      50.489   6.290 104.232  1.00  0.00    -0.776 OA
HETATM   26  H24 UNL     1      51.245   6.899 104.365  1.00  0.00     0.167 HD
ENDBRANCH  23  25
ENDBRANCH  22  23
ENDBRANCH  21  22
ENDBRANCH   4  21
TORSDOF 14
ENDMDL
