MODEL 1
REMARK VINA RESULT:      -7.3      0.000      0.000
REMARK  8 active torsions:
REMARK  status: ('A' for Active; 'I' for Inactive)
REMARK    1  A    between atoms: C2_2  and  O1_22 
REMARK    2  A    between atoms: C17_17  and  C18_18 
REMARK    3  A    between atoms: C18_18  and  C20_20 
REMARK    4  A    between atoms: C20_20  and  C23_24 
REMARK    5  A    between atoms: C23_24  and  C24_25 
REMARK       I    between atoms: C24_25  and  N1_26 
REMARK    6  A    between atoms: N1_26  and  C25_28 
REMARK    7  A    between atoms: C25_28  and  C26_29 
REMARK    8  A    between atoms: C26_29  and  O4_31 
ROOT
HETATM    1  C1  UNL     1      51.092  14.462  96.761  1.00  0.00     0.032 C 
HETATM    2  C2  UNL     1      52.367  14.743  97.543  1.00  0.00     0.118 C 
HETATM    3  C3  UNL     1      53.324  13.559  97.476  1.00  0.00     0.037 C 
HETATM    4  C4  UNL     1      52.711  12.200  97.863  1.00  0.00    -0.004 C 
HETATM    5  C5  UNL     1      51.299  11.921  97.216  1.00  0.00    -0.036 C 
HETATM    6  C6  UNL     1      50.402  13.191  97.246  1.00  0.00     0.012 C 
HETATM    7  C7  UNL     1      52.691  11.968  99.390  1.00  0.00     0.006 C 
HETATM    8  C8  UNL     1      52.356  10.506  99.749  1.00  0.00     0.006 C 
HETATM    9  C9  UNL     1      51.588   9.802  98.621  1.00  0.00    -0.005 C 
HETATM   10  C10 UNL     1      50.564  10.792  98.028  1.00  0.00    -0.002 C 
HETATM   11  C11 UNL     1      50.858   8.530  99.019  1.00  0.00    -0.002 C 
HETATM   12  C12 UNL     1      50.364   7.759  97.765  1.00  0.00    -0.036 C 
HETATM   13  C13 UNL     1      49.406   8.662  96.951  1.00  0.00     0.010 C 
HETATM   14  C14 UNL     1      49.318  10.134  97.386  1.00  0.00     0.006 C 
HETATM   15  C15 UNL     1      51.590   7.481  99.836  1.00  0.00     0.006 C 
HETATM   16  C16 UNL     1      50.754   6.213  99.615  1.00  0.00     0.006 C 
HETATM   17  C17 UNL     1      49.732   6.519  98.475  1.00  0.00    -0.002 C 
HETATM   18  C21 UNL     1      51.520  11.488  95.747  1.00  0.00     0.016 C 
HETATM   19  C22 UNL     1      51.511   7.305  96.819  1.00  0.00     0.016 C 
ENDROOT
BRANCH  17  20
HETATM   20  C18 UNL     1      49.393   5.246  97.642  1.00  0.00    -0.013 C 
HETATM   21  C19 UNL     1      48.026   5.345  96.953  1.00  0.00     0.010 C 
BRANCH  20  22
HETATM   22  C20 UNL     1      49.446   3.982  98.541  1.00  0.00     0.014 C 
BRANCH  22  23
HETATM   23  C23 UNL     1      48.071   3.487  98.998  1.00  0.00     0.103 C 
BRANCH  23  24
HETATM   24  C24 UNL     1      47.991   3.332 100.507  1.00  0.00     0.218 C 
HETATM   25  N1  UNL     1      47.607   4.494 101.143  1.00  0.00    -0.351 N 
HETATM   26  H40 UNL     1      47.732   5.359 100.632  1.00  0.00     0.163 HD
HETATM   27  O2  UNL     1      48.248   2.293 101.104  1.00  0.00    -0.274 OA
BRANCH  25  28
HETATM   28  C25 UNL     1      47.656   4.585 102.595  1.00  0.00     0.232 C 
BRANCH  28  29
HETATM   29  C26 UNL     1      49.084   4.825 103.055  1.00  0.00     0.158 C 
HETATM   30  O3  UNL     1      49.682   5.891 103.045  1.00  0.00    -0.649 OA
BRANCH  29  31
HETATM   31  O4  UNL     1      49.659   3.721 103.574  1.00  0.00    -0.775 OA
HETATM   32  H43 UNL     1      48.903   3.136 103.792  1.00  0.00     0.167 HD
ENDBRANCH  29  31
ENDBRANCH  28  29
ENDBRANCH  25  28
ENDBRANCH  23  24
ENDBRANCH  22  23
ENDBRANCH  20  22
ENDBRANCH  17  20
BRANCH   2  33
HETATM   33  O1  UNL     1      52.035  15.042  98.896  1.00  0.00    -0.396 OA
HETATM   34  H34 UNL     1      52.685  14.594  99.463  1.00  0.00     0.210 HD
ENDBRANCH   2  33
TORSDOF 8
ENDMDL
