MODEL 1
REMARK VINA RESULT:      -7.4      0.000      0.000
REMARK  13 active torsions:
REMARK  status: ('A' for Active; 'I' for Inactive)
REMARK    1  A    between atoms: C7_7  and  C8_8 
REMARK    2  A    between atoms: C8_8  and  C9_9 
REMARK    3  A    between atoms: C9_9  and  C10_10 
REMARK    4  A    between atoms: C10_10  and  C11_11 
REMARK    5  A    between atoms: C11_11  and  C12_12 
REMARK    6  A    between atoms: C12_12  and  C13_13 
REMARK    7  A    between atoms: C13_13  and  C14_14 
REMARK    8  A    between atoms: C14_14  and  C15_15 
REMARK    9  A    between atoms: C15_15  and  C16_16 
REMARK   10  A    between atoms: C16_16  and  C17_17 
REMARK   11  A    between atoms: C17_17  and  C18_18 
REMARK   12  A    between atoms: C18_18  and  C19_19 
REMARK   13  A    between atoms: C26_27  and  O2_28 
ROOT
HETATM    1  C8  UNL     1      47.868   3.239 100.743  1.00  0.00     0.038 C 
ENDROOT
BRANCH   1   2
HETATM    2  C7  UNL     1      49.150   4.001 101.199  1.00  0.00     0.064 C 
HETATM    3  C6  UNL     1      48.815   4.735 102.515  1.00  0.00     0.043 C 
HETATM    4  C5  UNL     1      49.961   5.620 102.974  1.00  0.00     0.044 C 
HETATM    5  C4  UNL     1      50.527   6.394 101.822  1.00  0.00    -0.021 A 
HETATM    6  C3  UNL     1      50.277   6.007 100.498  1.00  0.00     0.082 A 
HETATM    7  C25 UNL     1      51.348   7.504 102.072  1.00  0.00     0.046 A 
HETATM    8  C2  UNL     1      50.817   6.738  99.426  1.00  0.00    -0.025 A 
HETATM    9  O1  UNL     1      49.493   4.935 100.164  1.00  0.00    -0.340 OA
HETATM   10  C1  UNL     1      50.562   6.323  98.004  1.00  0.00     0.051 C 
HETATM   11  C27 UNL     1      51.631   7.846  99.696  1.00  0.00     0.046 A 
HETATM   12  C26 UNL     1      51.888   8.219 101.009  1.00  0.00     0.066 A 
HETATM   13  C24 UNL     1      50.316   3.016 101.397  1.00  0.00     0.046 C 
BRANCH  12  14
HETATM   14  O2  UNL     1      52.687   9.305 101.216  1.00  0.00    -0.361 OA
HETATM   15  H45 UNL     1      52.894   9.706 100.355  1.00  0.00     0.217 HD
ENDBRANCH  12  14
ENDBRANCH   1   2
BRANCH   1  16
HETATM   16  C9  UNL     1      46.926   2.692 101.827  1.00  0.00     0.003 C 
BRANCH  16  17
HETATM   17  C10 UNL     1      47.306   1.374 102.507  1.00  0.00     0.004 C 
BRANCH  17  18
HETATM   18  C11 UNL     1      47.461   1.420 104.043  1.00  0.00    -0.019 C 
HETATM   19  C23 UNL     1      46.919   2.772 104.534  1.00  0.00     0.010 C 
BRANCH  18  20
HETATM   20  C12 UNL     1      48.926   1.227 104.493  1.00  0.00     0.004 C 
BRANCH  20  21
HETATM   21  C13 UNL     1      49.593   2.502 105.034  1.00  0.00     0.001 C 
BRANCH  21  22
HETATM   22  C14 UNL     1      49.821   2.491 106.549  1.00  0.00     0.004 C 
BRANCH  22  23
HETATM   23  C15 UNL     1      51.024   1.634 106.992  1.00  0.00    -0.019 C 
HETATM   24  C22 UNL     1      50.541   0.504 107.907  1.00  0.00     0.010 C 
BRANCH  23  25
HETATM   25  C16 UNL     1      52.176   2.421 107.650  1.00  0.00     0.004 C 
BRANCH  25  26
HETATM   26  C17 UNL     1      53.135   3.116 106.674  1.00  0.00     0.001 C 
BRANCH  26  27
HETATM   27  C18 UNL     1      53.152   4.630 106.911  1.00  0.00     0.004 C 
BRANCH  27  28
HETATM   28  C19 UNL     1      52.452   5.474 105.828  1.00  0.00    -0.023 C 
HETATM   29  C20 UNL     1      51.265   6.259 106.383  1.00  0.00     0.009 C 
HETATM   30  C21 UNL     1      53.417   6.410 105.099  1.00  0.00     0.009 C 
ENDBRANCH  27  28
ENDBRANCH  26  27
ENDBRANCH  25  26
ENDBRANCH  23  25
ENDBRANCH  22  23
ENDBRANCH  21  22
ENDBRANCH  20  21
ENDBRANCH  18  20
ENDBRANCH  17  18
ENDBRANCH  16  17
ENDBRANCH   1  16
TORSDOF 13
ENDMDL
