MODEL 1
REMARK VINA RESULT:      -9.5      0.000      0.000
REMARK  1 active torsions:
REMARK  status: ('A' for Active; 'I' for Inactive)
REMARK    1  A    between atoms: C8_10  and  N3_11 
ROOT
HETATM    1  N3  UNL     1      50.351   1.264 106.130  1.00  0.00    -0.345 N 
HETATM    2  C9  UNL     1      50.041   0.028 106.797  1.00  0.00     0.052 A 
HETATM    3  C10 UNL     1      50.446  -0.257 108.083  1.00  0.00     0.032 A 
HETATM    4  S1  UNL     1      51.369   0.895 109.030  1.00  0.00    -0.086 SA
HETATM    5  C11 UNL     1      51.634   2.326 107.973  1.00  0.00     0.032 A 
HETATM    6  C12 UNL     1      51.095   2.310 106.706  1.00  0.00     0.053 A 
HETATM    7  C13 UNL     1      49.301  -0.929 106.112  1.00  0.00     0.031 A 
HETATM    8  C14 UNL     1      48.986  -2.143 106.725  1.00  0.00     0.002 A 
HETATM    9  C15 UNL     1      49.395  -2.413 108.000  1.00  0.00     0.002 A 
HETATM   10  C16 UNL     1      50.127  -1.445 108.656  1.00  0.00     0.021 A 
HETATM   11  C17 UNL     1      52.369   3.376 108.465  1.00  0.00     0.023 A 
HETATM   12  C18 UNL     1      52.591   4.476 107.669  1.00  0.00     0.025 A 
HETATM   13  C19 UNL     1      52.081   4.516 106.402  1.00  0.00     0.036 A 
HETATM   14  C20 UNL     1      51.339   3.435 105.928  1.00  0.00     0.054 A 
HETATM   15 CL1  UNL     1      52.384   5.924 105.415  1.00  0.00    -0.084 Cl
ENDROOT
BRANCH   1  16
HETATM   16  C8  UNL     1      49.851   1.406 104.754  1.00  0.00     0.131 A 
HETATM   17  C7  UNL     1      48.444   1.836 104.706  1.00  0.00     0.050 A 
HETATM   18  C6  UNL     1      47.852   2.000 103.371  1.00  0.00     0.274 A 
HETATM   19 CL2  UNL     1      49.501   2.290 103.697  1.00  0.00    -0.145 Cl
HETATM   20 CL3  UNL     1      49.501   2.290 103.698  1.00  0.00    -0.145 Cl
HETATM   21  N2  UNL     1      48.367   2.936 102.444  1.00  0.00     0.091 N 
HETATM   22  C2  UNL     1      47.334   2.960 101.361  1.00  0.00     0.302 C 
HETATM   23  C3  UNL     1      49.603   2.489 101.831  1.00  0.00     0.302 A 
HETATM   24  C1  UNL     1      47.640   3.970 100.317  1.00  0.00     0.302 C 
HETATM   25  N1  UNL     1      48.982   3.751  99.807  1.00  0.00     0.087 N 
HETATM   26  C4  UNL     1      49.553   2.530 100.308  1.00  0.00     0.302 C 
HETATM   27  C5  UNL     1      49.843   4.887 100.068  1.00  0.00     0.310 C 
HETATM   28  H25 UNL     1      49.938   1.837 104.911  1.00  0.00     0.145 HD
HETATM   29  H26 UNL     1      49.939   1.837 104.910  1.00  0.00     0.145 HD
ENDBRANCH   1  16
TORSDOF 1
ENDMDL
