MODEL 1
REMARK VINA RESULT:      -7.4      0.000      0.000
REMARK  2 active torsions:
REMARK  status: ('A' for Active; 'I' for Inactive)
REMARK    1  A    between atoms: C2_4  and  C3_5 
REMARK    2  A    between atoms: C12_17  and  C14_19 
ROOT
HETATM    1  O1  UNL     1      51.531   6.683 104.440  1.00  0.00    -0.265 OA
HETATM    2  C1  UNL     1      50.855   5.665 104.335  1.00  0.00     0.288 A 
HETATM    3  N1  UNL     1      50.029   5.443 103.245  1.00  0.00    -0.193 NA
HETATM    4  C2  UNL     1      49.305   4.363 103.177  1.00  0.00     0.142 A 
HETATM    5  N3  UNL     1      49.275   3.335 104.109  1.00  0.00    -0.341 N 
HETATM    6  C10 UNL     1      50.071   3.470 105.183  1.00  0.00     0.057 A 
HETATM    7  C11 UNL     1      50.836   4.595 105.307  1.00  0.00     0.102 A 
HETATM    8  S1  UNL     1      51.755   4.584 106.729  1.00  0.00    -0.082 SA
HETATM    9  C12 UNL     1      51.210   3.005 107.140  1.00  0.00     0.021 A 
HETATM   10  C13 UNL     1      50.270   2.540 106.235  1.00  0.00     0.051 A 
HETATM   11  H13 UNL     1      48.499   2.679 104.037  1.00  0.00     0.167 HD
ENDROOT
BRANCH   4  12
HETATM   12  C3  UNL     1      48.365   4.157 101.957  1.00  0.00     0.292 C 
HETATM   13  N2  UNL     1      49.231   4.014 100.731  1.00  0.00     0.100 N 
HETATM   14  C4  UNL     1      49.797   2.635 100.719  1.00  0.00     0.273 C 
HETATM   15  C9  UNL     1      48.364   4.164  99.534  1.00  0.00     0.273 C 
HETATM   16  C5  UNL     1      48.701   1.570 100.540  1.00  0.00     0.035 C 
HETATM   17  C6  UNL     1      47.325   2.222 100.740  1.00  0.00    -0.009 C 
HETATM   18  C7  UNL     1      47.354   2.994 102.070  1.00  0.00     0.048 C 
HETATM   19  C8  UNL     1      47.131   3.244  99.606  1.00  0.00     0.035 C 
ENDBRANCH   4  12
BRANCH   9  20
HETATM   20  C14 UNL     1      51.756   2.170 108.351  1.00  0.00     0.024 A 
HETATM   21  C15 UNL     1      51.569   0.801 108.682  1.00  0.00     0.063 A 
HETATM   22  C16 UNL     1      50.844  -0.269 107.945  1.00  0.00     0.073 C 
HETATM   23  N4  UNL     1      52.113   0.511 109.879  1.00  0.00    -0.179 NA
HETATM   24  N5  UNL     1      52.680   1.661 110.274  1.00  0.00    -0.288 N 
HETATM   25  C17 UNL     1      52.512   2.683 109.386  1.00  0.00     0.124 A 
HETATM   26  H18 UNL     1      53.141   1.682 111.180  1.00  0.00     0.188 HD
ENDBRANCH   9  20
TORSDOF 2
ENDMDL
