MODEL 1
REMARK VINA RESULT:      -8.2      0.000      0.000
REMARK  12 active torsions:
REMARK  status: ('A' for Active; 'I' for Inactive)
REMARK    1  A    between atoms: C5_7  and  C6_8 
REMARK    2  A    between atoms: C6_8  and  N2_9 
REMARK    3  A    between atoms: N2_9  and  C7_10 
REMARK    4  A    between atoms: C10_13  and  C11_14 
REMARK       I    between atoms: C11_14  and  N3_15 
REMARK    5  A    between atoms: N3_15  and  C12_16 
REMARK    6  A    between atoms: C12_16  and  C13_17 
REMARK    7  A    between atoms: C12_16  and  C16_22 
REMARK    8  A    between atoms: C13_17  and  C14_18 
REMARK    9  A    between atoms: C14_18  and  C15_19 
REMARK   10  A    between atoms: C15_19  and  O2_20 
REMARK   11  A    between atoms: C16_22  and  O4_23 
REMARK   12  A    between atoms: C19_30  and  N6_31 
ROOT
HETATM    1  C7  UNL     1      49.287   4.437 102.426  1.00  0.00     0.008 A 
HETATM    2  C8  UNL     1      49.964   5.601 102.820  1.00  0.00     0.024 A 
HETATM    3  C9  UNL     1      50.511   6.487 101.884  1.00  0.00     0.019 A 
HETATM    4  C10 UNL     1      50.420   6.201 100.520  1.00  0.00     0.032 A 
HETATM    5  C17 UNL     1      49.770   5.032 100.113  1.00  0.00     0.019 A 
HETATM    6  C18 UNL     1      49.228   4.152 101.057  1.00  0.00     0.024 A 
ENDROOT
BRANCH   1   7
HETATM    7  N2  UNL     1      48.836   3.565 103.425  1.00  0.00    -0.288 NA
HETATM    8  H6  UNL     1      47.812   3.529 103.427  1.00  0.00     0.128 HD
BRANCH   7   9
HETATM    9  C6  UNL     1      49.391   2.214 103.496  1.00  0.00     0.148 C 
BRANCH   9  10
HETATM   10  C5  UNL     1      50.035   2.037 104.864  1.00  0.00     0.044 C 
HETATM   11  C4  UNL     1      49.911   0.652 105.498  1.00  0.00     0.177 C 
HETATM   12  N1  UNL     1      50.289   0.685 106.910  1.00  0.00    -0.369 N 
HETATM   13  C3  UNL     1      51.116   1.701 107.362  1.00  0.00     0.138 C 
HETATM   14  H1  UNL     1      50.530  -0.222 107.296  1.00  0.00     0.161 HD
HETATM   15  C2  UNL     1      51.306   2.813 106.607  1.00  0.00     0.170 C 
HETATM   16  N5  UNL     1      51.735   1.591 108.579  1.00  0.00    -0.316 N 
HETATM   17  C1  UNL     1      52.238   3.879 107.182  1.00  0.00     0.302 C 
HETATM   18  N4  UNL     1      50.716   3.028 105.369  1.00  0.00    -0.245 NA
HETATM   19  O1  UNL     1      52.578   4.836 106.488  1.00  0.00    -0.263 OA
HETATM   20  N7  UNL     1      52.676   3.740 108.487  1.00  0.00    -0.179 NA
HETATM   21  C19 UNL     1      52.413   2.640 109.101  1.00  0.00     0.182 C 
HETATM   22  H19 UNL     1      51.269   0.977 109.232  1.00  0.00     0.170 HD
BRANCH  21  23
HETATM   23  N6  UNL     1      52.818   2.437 110.379  1.00  0.00    -0.272 NA
HETATM   24  H20 UNL     1      52.535   3.223 110.961  1.00  0.00     0.127 HD
HETATM   25  H21 UNL     1      53.817   2.286 110.468  1.00  0.00     0.127 HD
ENDBRANCH  21  23
ENDBRANCH   9  10
ENDBRANCH   7   9
ENDBRANCH   1   7
BRANCH   4  26
HETATM   26  C11 UNL     1      50.979   7.103  99.475  1.00  0.00     0.252 C 
HETATM   27  N3  UNL     1      50.867   8.456  99.706  1.00  0.00    -0.343 N 
HETATM   28  H9  UNL     1      50.654   8.777 100.647  1.00  0.00     0.163 HD
HETATM   29  O6  UNL     1      51.526   6.639  98.482  1.00  0.00    -0.268 OA
BRANCH  27  30
HETATM   30  C12 UNL     1      51.487   9.443  98.822  1.00  0.00     0.183 C 
BRANCH  30  31
HETATM   31  C13 UNL     1      50.513  10.562  98.410  1.00  0.00     0.046 C 
BRANCH  31  32
HETATM   32  C14 UNL     1      50.955  11.427  97.232  1.00  0.00     0.112 C 
BRANCH  32  33
HETATM   33  C15 UNL     1      51.300  12.826  97.645  1.00  0.00     0.139 C 
HETATM   34  O3  UNL     1      52.318  13.175  98.215  1.00  0.00    -0.650 OA
BRANCH  33  35
HETATM   35  O2  UNL     1      50.365  13.724  97.285  1.00  0.00    -0.776 OA
HETATM   36  H15 UNL     1      50.255  13.593  96.319  1.00  0.00     0.167 HD
ENDBRANCH  33  35
ENDBRANCH  32  33
ENDBRANCH  31  32
ENDBRANCH  30  31
BRANCH  30  37
HETATM   37  C16 UNL     1      52.780   9.925  99.484  1.00  0.00     0.163 C 
HETATM   38  O5  UNL     1      53.036   9.843 100.678  1.00  0.00    -0.648 OA
BRANCH  37  39
HETATM   39  O4  UNL     1      53.699  10.407  98.628  1.00  0.00    -0.775 OA
HETATM   40  H16 UNL     1      53.196  10.532  97.795  1.00  0.00     0.167 HD
ENDBRANCH  37  39
ENDBRANCH  30  37
ENDBRANCH  27  30
ENDBRANCH   4  26
TORSDOF 12
ENDMDL
