MODEL 1
REMARK VINA RESULT:      -7.7      0.000      0.000
REMARK  6 active torsions:
REMARK  status: ('A' for Active; 'I' for Inactive)
REMARK    1  A    between atoms: C2_2  and  C5_6 
REMARK    2  A    between atoms: N1_4  and  C21_22 
REMARK    3  A    between atoms: C5_6  and  C6_7 
REMARK    4  A    between atoms: C21_22  and  C22_23 
REMARK    5  A    between atoms: C22_23  and  C23_24 
REMARK    6  A    between atoms: C23_24  and  C24_25 
ROOT
HETATM    1  C1  UNL     1      50.831   6.653 102.337  1.00  0.00    -0.001 A 
HETATM    2  C2  UNL     1      50.441   6.128 103.615  1.00  0.00    -0.026 A 
HETATM    3  C3  UNL     1      49.606   5.056 103.356  1.00  0.00     0.099 A 
HETATM    4  N1  UNL     1      49.441   4.943 102.000  1.00  0.00    -0.356 N 
HETATM    5  C4  UNL     1      50.187   5.901 101.349  1.00  0.00     0.045 A 
HETATM    6  C17 UNL     1      50.356   6.168  99.981  1.00  0.00     0.030 A 
HETATM    7  C18 UNL     1      51.199   7.220  99.611  1.00  0.00     0.002 A 
HETATM    8  C19 UNL     1      51.854   7.981 100.572  1.00  0.00     0.001 A 
HETATM    9  C20 UNL     1      51.679   7.708 101.934  1.00  0.00     0.014 A 
ENDROOT
BRANCH   2  10
HETATM   10  C5  UNL     1      50.900   6.627 104.952  1.00  0.00     0.080 C 
BRANCH  10  11
HETATM   11  C6  UNL     1      52.211   5.940 105.293  1.00  0.00    -0.043 A 
HETATM   12  C7  UNL     1      53.393   6.550 104.838  1.00  0.00     0.009 A 
HETATM   13  C8  UNL     1      54.636   5.999 105.116  1.00  0.00     0.008 A 
HETATM   14  C9  UNL     1      54.741   4.820 105.863  1.00  0.00    -0.051 A 
HETATM   15  C10 UNL     1      53.568   4.177 106.341  1.00  0.00    -0.019 A 
HETATM   16  C16 UNL     1      56.120   4.271 106.132  1.00  0.00     0.049 C 
HETATM   17  C11 UNL     1      52.290   4.738 106.055  1.00  0.00    -0.019 A 
HETATM   18  C12 UNL     1      53.626   2.985 107.100  1.00  0.00     0.013 A 
HETATM   19  C15 UNL     1      51.146   4.066 106.548  1.00  0.00     0.013 A 
HETATM   20  C14 UNL     1      51.236   2.890 107.292  1.00  0.00     0.001 A 
HETATM   21  C13 UNL     1      52.477   2.348 107.570  1.00  0.00     0.001 A 
ENDBRANCH  10  11
ENDBRANCH   2  10
BRANCH   4  22
HETATM   22  C21 UNL     1      48.585   3.952 101.365  1.00  0.00     0.128 C 
BRANCH  22  23
HETATM   23  C22 UNL     1      49.073   2.526 101.620  1.00  0.00     0.020 C 
BRANCH  23  24
HETATM   24  C23 UNL     1      48.097   1.699 102.465  1.00  0.00     0.001 C 
BRANCH  24  25
HETATM   25  C24 UNL     1      48.497   1.531 103.932  1.00  0.00    -0.004 C 
HETATM   26  C25 UNL     1      49.995   1.441 104.171  1.00  0.00     0.005 C 
ENDBRANCH  24  25
ENDBRANCH  23  24
ENDBRANCH  22  23
ENDBRANCH   4  22
TORSDOF 6
ENDMDL
