MODEL 1
REMARK VINA RESULT:      -6.8      0.000      0.000
REMARK  15 active torsions:
REMARK  status: ('A' for Active; 'I' for Inactive)
REMARK    1  A    between atoms: C1_1  and  C2_2 
REMARK    2  A    between atoms: C1_1  and  C5_5 
REMARK    3  A    between atoms: C3_3  and  C8_8 
REMARK    4  A    between atoms: C4_4  and  C6_6 
REMARK    5  A    between atoms: C6_6  and  C7_7 
REMARK    6  A    between atoms: C8_8  and  C9_9 
REMARK    7  A    between atoms: C10_10  and  C12_12 
REMARK    8  A    between atoms: C11_11  and  C16_16 
REMARK    9  A    between atoms: C12_12  and  C13_13 
REMARK   10  A    between atoms: C13_13  and  C14_14 
REMARK   11  A    between atoms: C14_14  and  C15_15 
REMARK   12  A    between atoms: C15_15  and  O3_23 
REMARK   13  A    between atoms: C17_17  and  C18_18 
REMARK   14  A    between atoms: C18_18  and  C19_19 
REMARK   15  A    between atoms: C18_18  and  O1_21 
ROOT
HETATM    1  C1  UNL     1      52.192   2.325 107.633  1.00  0.00     0.053 C 
ENDROOT
BRANCH   1   2
HETATM    2  C2  UNL     1      52.263   1.591 108.942  1.00  0.00    -0.027 C 
HETATM    3  C3  UNL     1      51.432   0.635 109.392  1.00  0.00    -0.027 C 
BRANCH   3   4
HETATM    4  C8  UNL     1      50.262   0.019 108.681  1.00  0.00     0.054 C 
BRANCH   4   5
HETATM    5  C9  UNL     1      50.709  -1.006 107.679  1.00  0.00    -0.023 C 
HETATM    6  C11 UNL     1      50.443  -1.062 106.365  1.00  0.00    -0.004 C 
BRANCH   6   7
HETATM    7  C16 UNL     1      49.691  -0.092 105.603  1.00  0.00    -0.002 C 
HETATM    8  C17 UNL     1      50.280   0.891 104.901  1.00  0.00     0.004 C 
BRANCH   8   9
HETATM    9  C18 UNL     1      49.527   1.923 104.114  1.00  0.00     0.140 C 
BRANCH   9  10
HETATM   10  C19 UNL     1      48.045   1.561 103.993  1.00  0.00     0.031 C 
HETATM   11  C20 UNL     1      47.140   2.699 104.446  1.00  0.00     0.008 C 
ENDBRANCH   9  10
BRANCH   9  12
HETATM   12  O1  UNL     1      50.109   1.975 102.814  1.00  0.00    -0.392 OA
HETATM   13  H29 UNL     1      49.382   1.865 102.177  1.00  0.00     0.210 HD
ENDBRANCH   9  12
ENDBRANCH   8   9
ENDBRANCH   6   7
ENDBRANCH   4   5
ENDBRANCH   3   4
ENDBRANCH   1   2
BRANCH   1  14
HETATM   14  C5  UNL     1      52.110   3.809 107.847  1.00  0.00    -0.027 C 
HETATM   15  C4  UNL     1      52.868   4.758 107.270  1.00  0.00    -0.027 C 
BRANCH  15  16
HETATM   16  C6  UNL     1      53.938   4.561 106.236  1.00  0.00     0.053 C 
BRANCH  16  17
HETATM   17  C7  UNL     1      54.458   5.880 105.740  1.00  0.00    -0.027 C 
HETATM   18  C10 UNL     1      53.830   6.754 104.937  1.00  0.00    -0.030 C 
BRANCH  18  19
HETATM   19  C12 UNL     1      52.432   6.642 104.399  1.00  0.00     0.027 C 
BRANCH  19  20
HETATM   20  C13 UNL     1      52.396   6.849 102.886  1.00  0.00     0.014 C 
BRANCH  20  21
HETATM   21  C14 UNL     1      50.975   7.131 102.404  1.00  0.00     0.110 C 
BRANCH  21  22
HETATM   22  C15 UNL     1      50.362   5.925 101.749  1.00  0.00     0.139 C 
HETATM   23  O2  UNL     1      50.205   4.816 102.228  1.00  0.00    -0.650 OA
BRANCH  22  24
HETATM   24  O3  UNL     1      49.969   6.186 100.488  1.00  0.00    -0.776 OA
HETATM   25  H30 UNL     1      49.045   6.499 100.594  1.00  0.00     0.167 HD
ENDBRANCH  22  24
ENDBRANCH  21  22
ENDBRANCH  20  21
ENDBRANCH  19  20
ENDBRANCH  18  19
ENDBRANCH  16  17
ENDBRANCH  15  16
ENDBRANCH   1  14
TORSDOF 15
ENDMDL
