MODEL 1
REMARK VINA RESULT:      -7.3      0.000      0.000
REMARK  5 active torsions:
REMARK  status: ('A' for Active; 'I' for Inactive)
REMARK    1  A    between atoms: C10_11  and  O2_12 
REMARK    2  A    between atoms: C12_14  and  C13_15 
REMARK    3  A    between atoms: C13_15  and  C14_16 
REMARK    4  A    between atoms: C14_16  and  C15_17 
REMARK    5  A    between atoms: C15_17  and  C16_18 
ROOT
HETATM    1  C1  UNL     1      50.366   0.244 108.550  1.00  0.00    -0.014 C 
HETATM    2  C2  UNL     1      50.102   0.708 107.107  1.00  0.00     0.044 C 
HETATM    3  C3  UNL     1      50.699   2.058 106.780  1.00  0.00    -0.037 C 
HETATM    4  C4  UNL     1      51.623   2.650 107.567  1.00  0.00    -0.039 C 
HETATM    5  C5  UNL     1      52.177   4.035 107.243  1.00  0.00     0.084 C 
HETATM    6  C6  UNL     1      52.331   4.905 108.503  1.00  0.00     0.051 C 
HETATM    7  C7  UNL     1      53.541   3.925 106.541  1.00  0.00     0.051 C 
HETATM    8  O1  UNL     1      51.310   4.816 106.396  1.00  0.00    -0.335 OA
HETATM    9  C8  UNL     1      50.597   4.135 105.448  1.00  0.00     0.084 A 
HETATM   10  C9  UNL     1      50.273   2.776 105.554  1.00  0.00     0.037 A 
HETATM   11  C10 UNL     1      49.547   2.215 104.485  1.00  0.00     0.079 A 
HETATM   12  C11 UNL     1      49.141   2.985 103.385  1.00  0.00     0.044 A 
HETATM   13  C12 UNL     1      49.449   4.347 103.317  1.00  0.00    -0.053 A 
HETATM   14  C18 UNL     1      50.178   4.915 104.362  1.00  0.00     0.045 A 
HETATM   15  C19 UNL     1      52.177   1.958 108.797  1.00  0.00     0.038 C 
HETATM   16  C20 UNL     1      51.834   0.473 108.898  1.00  0.00     0.009 C 
HETATM   17  C21 UNL     1      49.978  -1.224 108.727  1.00  0.00     0.010 C 
ENDROOT
BRANCH  13  18
HETATM   18  C13 UNL     1      49.015   5.182 102.140  1.00  0.00     0.039 C 
BRANCH  18  19
HETATM   19  C14 UNL     1      49.938   5.065 100.920  1.00  0.00     0.005 C 
BRANCH  19  20
HETATM   20  C15 UNL     1      50.666   6.373 100.594  1.00  0.00    -0.000 C 
BRANCH  20  21
HETATM   21  C16 UNL     1      52.078   6.443 101.184  1.00  0.00    -0.005 C 
HETATM   22  C17 UNL     1      52.181   7.336 102.413  1.00  0.00     0.005 C 
ENDBRANCH  20  21
ENDBRANCH  19  20
ENDBRANCH  18  19
ENDBRANCH  13  18
BRANCH  11  23
HETATM   23  O2  UNL     1      49.227   0.883 104.477  1.00  0.00    -0.360 OA
HETATM   24  H10 UNL     1      48.875   0.631 105.345  1.00  0.00     0.217 HD
ENDBRANCH  11  23
TORSDOF 5
ENDMDL
