MODEL 1
REMARK VINA RESULT:      -7.0      0.000      0.000
REMARK  3 active torsions:
REMARK  status: ('A' for Active; 'I' for Inactive)
REMARK    1  A    between atoms: O1_1  and  C1_2 
REMARK    2  A    between atoms: C5_10  and  C6_11 
REMARK       I    between atoms: C6_11  and  N2_12 
REMARK    3  A    between atoms: N2_12  and  C7_13 
ROOT
HETATM    1  C1  UNL     1      47.885   1.604 102.984  1.00  0.00     0.112 C 
HETATM    2  C2  UNL     1      47.646   1.564 101.575  1.00  0.00     0.064 A 
HETATM    3  C3  UNL     1      48.461   2.110 100.606  1.00  0.00     0.097 A 
HETATM    4  S1  UNL     1      49.868   2.929 101.143  1.00  0.00     0.249 S 
HETATM    5  O2  UNL     1      50.852   1.880 101.263  1.00  0.00    -0.205 OA
HETATM    6  O3  UNL     1      50.009   4.050 100.242  1.00  0.00    -0.205 OA
HETATM    7  N1  UNL     1      49.447   3.485 102.710  1.00  0.00    -0.168 NA
HETATM    8  C4  UNL     1      48.763   4.808 102.710  1.00  0.00     0.136 C 
HETATM    9  C5  UNL     1      48.786   2.464 103.521  1.00  0.00     0.127 C 
HETATM   10  C12 UNL     1      48.020   1.921  99.273  1.00  0.00     0.057 A 
HETATM   11  C13 UNL     1      46.844   1.218  99.277  1.00  0.00     0.076 A 
HETATM   12 CL1  UNL     1      45.928   0.753  97.901  1.00  0.00    -0.076 Cl
HETATM   13  S2  UNL     1      46.298   0.802 100.828  1.00  0.00    -0.074 SA
ENDROOT
BRANCH   9  14
HETATM   14  C6  UNL     1      49.063   2.457 105.001  1.00  0.00     0.272 C 
HETATM   15  N2  UNL     1      50.371   2.182 105.291  1.00  0.00    -0.306 N 
HETATM   16  H9  UNL     1      51.000   1.980 104.523  1.00  0.00     0.170 HD
HETATM   17  O4  UNL     1      48.155   2.677 105.797  1.00  0.00    -0.266 OA
BRANCH  15  18
HETATM   18  C7  UNL     1      50.995   2.109 106.534  1.00  0.00     0.129 A 
HETATM   19  C8  UNL     1      50.901   1.023 107.391  1.00  0.00     0.050 A 
HETATM   20  C9  UNL     1      51.573   1.072 108.612  1.00  0.00     0.005 A 
HETATM   21  C10 UNL     1      52.315   2.198 108.939  1.00  0.00     0.019 A 
HETATM   22  C11 UNL     1      52.351   3.236 108.026  1.00  0.00     0.119 A 
HETATM   23  N3  UNL     1      51.708   3.216 106.837  1.00  0.00    -0.243 NA
ENDBRANCH  15  18
ENDBRANCH   9  14
BRANCH   1  24
HETATM   24  O1  UNL     1      47.164   0.678 103.714  1.00  0.00    -0.357 OA
HETATM   25  H5  UNL     1      47.715   0.367 104.467  1.00  0.00     0.217 HD
ENDBRANCH   1  24
TORSDOF 3
ENDMDL
