MODEL 1
REMARK VINA RESULT:      -7.0      0.000      0.000
REMARK  1 active torsions:
REMARK  status: ('A' for Active; 'I' for Inactive)
REMARK    1  A    between atoms: C1_1  and  N2_17 
ROOT
HETATM    1  C1  UNL     1      51.246   6.978 101.591  1.00  0.00     0.139 C 
HETATM    2  N1  UNL     1      50.565   6.200 100.794  1.00  0.00    -0.228 NA
HETATM    3  C2  UNL     1      49.985   4.986 101.188  1.00  0.00     0.093 A 
HETATM    4  C3  UNL     1      49.343   4.775 102.414  1.00  0.00     0.104 A 
HETATM    5  O1  UNL     1      49.316   5.740 103.396  1.00  0.00    -0.307 OA
HETATM    6  C4  UNL     1      50.568   6.073 103.848  1.00  0.00     0.090 A 
HETATM    7  C5  UNL     1      51.541   6.634 103.020  1.00  0.00     0.045 A 
HETATM    8  C6  UNL     1      49.961   3.950 100.247  1.00  0.00     0.034 A 
HETATM    9  C7  UNL     1      49.323   2.737 100.523  1.00  0.00     0.002 A 
HETATM   10  C8  UNL     1      48.680   2.550 101.744  1.00  0.00     0.003 A 
HETATM   11  C9  UNL     1      48.682   3.574 102.690  1.00  0.00     0.040 A 
HETATM   12  C10 UNL     1      50.836   5.845 105.200  1.00  0.00     0.040 A 
HETATM   13  C11 UNL     1      52.099   6.135 105.718  1.00  0.00     0.026 A 
HETATM   14  C12 UNL     1      53.084   6.655 104.880  1.00  0.00     0.035 A 
HETATM   15  C13 UNL     1      52.815   6.906 103.536  1.00  0.00     0.042 A 
HETATM   16 CL1  UNL     1      54.645   7.006 105.515  1.00  0.00    -0.084 Cl
ENDROOT
BRANCH   1  17
HETATM   17  N2  UNL     1      51.751   8.178 101.079  1.00  0.00    -0.362 N 
HETATM   18  C14 UNL     1      52.940   8.133 100.201  1.00  0.00     0.154 C 
HETATM   19  C15 UNL     1      53.474   9.555  99.938  1.00  0.00     0.291 C 
HETATM   20  N3  UNL     1      52.513  10.430  99.230  1.00  0.00     0.087 N 
HETATM   21  C16 UNL     1      51.119  10.019  99.493  1.00  0.00     0.291 C 
HETATM   22  C18 UNL     1      52.746  11.831  99.565  1.00  0.00     0.310 C 
HETATM   23  C17 UNL     1      50.877   9.350 100.864  1.00  0.00     0.154 C 
ENDBRANCH   1  17
TORSDOF 1
ENDMDL
