MODEL 1
REMARK VINA RESULT:      -8.9      0.000      0.000
REMARK  3 active torsions:
REMARK  status: ('A' for Active; 'I' for Inactive)
REMARK    1  A    between atoms: C2_3  and  C14_19 
REMARK    2  A    between atoms: C5_7  and  C6_8 
REMARK    3  A    between atoms: C10_12  and  C12_14 
ROOT
HETATM    1  O1  UNL     1      48.991   0.691 105.139  1.00  0.00    -0.286 OA
HETATM    2  C1  UNL     1      48.986   1.723 104.473  1.00  0.00     0.196 A 
HETATM    3  C2  UNL     1      48.135   1.853 103.237  1.00  0.00     0.041 A 
HETATM    4  C3  UNL     1      48.241   3.003 102.548  1.00  0.00     0.106 A 
HETATM    5  N1  UNL     1      49.058   4.071 102.891  1.00  0.00    -0.369 N 
HETATM    6  C4  UNL     1      49.798   3.975 104.059  1.00  0.00     0.106 A 
HETATM    7  C5  UNL     1      49.825   2.906 104.875  1.00  0.00     0.041 A 
HETATM    8  C13 UNL     1      49.058   5.302 102.096  1.00  0.00     0.154 C 
ENDROOT
BRANCH   7   9
HETATM    9  C6  UNL     1      50.665   2.897 106.087  1.00  0.00    -0.020 A 
HETATM   10  C7  UNL     1      51.461   4.003 106.418  1.00  0.00     0.012 A 
HETATM   11  C8  UNL     1      52.255   3.992 107.567  1.00  0.00     0.002 A 
HETATM   12  C9  UNL     1      52.262   2.875 108.400  1.00  0.00     0.016 A 
HETATM   13  C10 UNL     1      51.477   1.754 108.091  1.00  0.00     0.048 A 
HETATM   14  C11 UNL     1      50.676   1.781 106.936  1.00  0.00     0.028 A 
BRANCH  13  15
HETATM   15  C12 UNL     1      51.458   0.556 109.008  1.00  0.00     0.417 C 
HETATM   16  F1  UNL     1      50.289   0.441 109.701  1.00  0.00    -0.166 F 
HETATM   17  F2  UNL     1      52.441   0.586 109.951  1.00  0.00    -0.166 F 
HETATM   18  F3  UNL     1      51.611  -0.618 108.340  1.00  0.00    -0.166 F 
ENDBRANCH  13  15
ENDBRANCH   7   9
BRANCH   3  19
HETATM   19  C14 UNL     1      47.248   0.771 102.772  1.00  0.00    -0.021 A 
HETATM   20  C15 UNL     1      47.104   0.509 101.402  1.00  0.00     0.012 A 
HETATM   21  C16 UNL     1      46.257  -0.508 100.956  1.00  0.00     0.001 A 
HETATM   22  C17 UNL     1      45.547  -1.278 101.874  1.00  0.00     0.000 A 
HETATM   23  C18 UNL     1      45.683  -1.033 103.238  1.00  0.00     0.001 A 
HETATM   24  C19 UNL     1      46.531  -0.016 103.685  1.00  0.00     0.012 A 
ENDBRANCH   3  19
TORSDOF 3
ENDMDL
