MODEL 1
REMARK VINA RESULT:      -6.9      0.000      0.000
REMARK  6 active torsions:
REMARK  status: ('A' for Active; 'I' for Inactive)
REMARK    1  A    between atoms: C1_2  and  O2_3 
REMARK    2  A    between atoms: C1_2  and  C2_4 
REMARK    3  A    between atoms: C2_4  and  C3_5 
REMARK    4  A    between atoms: C3_5  and  C16_21 
REMARK    5  A    between atoms: C10_13  and  O4_14 
REMARK    6  A    between atoms: C11_15  and  C14_19 
ROOT
HETATM    1  C3  UNL     1      49.169   4.402 103.230  1.00  0.00     0.112 C 
HETATM    2  O3  UNL     1      49.555   5.776 102.959  1.00  0.00    -0.373 OA
HETATM    3  C4  UNL     1      50.851   6.216 103.393  1.00  0.00     0.174 C 
HETATM    4  C5  UNL     1      51.044   6.068 104.908  1.00  0.00     0.068 C 
HETATM    5  C6  UNL     1      50.742   4.662 105.263  1.00  0.00    -0.018 A 
HETATM    6  C7  UNL     1      51.189   3.836 106.326  1.00  0.00    -0.000 A 
HETATM    7  C8  UNL     1      52.050   4.032 107.420  1.00  0.00     0.017 A 
HETATM    8  C9  UNL     1      52.292   2.973 108.299  1.00  0.00     0.038 A 
HETATM    9  C10 UNL     1      51.680   1.739 108.096  1.00  0.00     0.074 A 
HETATM   10  C11 UNL     1      50.800   1.497 107.026  1.00  0.00     0.002 A 
HETATM   11  C12 UNL     1      50.587   2.585 106.151  1.00  0.00     0.052 A 
HETATM   12  N1  UNL     1      49.808   2.668 105.013  1.00  0.00    -0.355 N 
HETATM   13  C13 UNL     1      49.890   3.923 104.472  1.00  0.00     0.052 A 
HETATM   14  H11 UNL     1      49.264   1.901 104.644  1.00  0.00     0.166 HD
ENDROOT
BRANCH   1  15
HETATM   15  C2  UNL     1      47.661   4.443 103.553  1.00  0.00     0.154 C 
BRANCH  15  16
HETATM   16  C1  UNL     1      46.960   3.138 103.314  1.00  0.00     0.142 C 
HETATM   17  O1  UNL     1      46.974   2.170 104.056  1.00  0.00    -0.650 OA
BRANCH  16  18
HETATM   18  O2  UNL     1      46.240   3.116 102.176  1.00  0.00    -0.776 OA
HETATM   19  H1  UNL     1      45.310   3.138 102.479  1.00  0.00     0.167 HD
ENDBRANCH  16  18
ENDBRANCH  15  16
ENDBRANCH   1  15
BRANCH   1  20
HETATM   20  C16 UNL     1      49.463   3.499 102.006  1.00  0.00     0.040 C 
HETATM   21  C17 UNL     1      49.430   4.173 100.639  1.00  0.00     0.008 C 
ENDBRANCH   1  20
BRANCH  10  22
HETATM   22  C14 UNL     1      50.164   0.144 106.825  1.00  0.00     0.039 C 
HETATM   23  C15 UNL     1      50.914  -0.681 105.789  1.00  0.00     0.010 C 
ENDBRANCH  10  22
BRANCH   9  24
HETATM   24  O4  UNL     1      51.939   0.709 108.964  1.00  0.00    -0.360 OA
HETATM   25  H10 UNL     1      52.043  -0.109 108.452  1.00  0.00     0.217 HD
ENDBRANCH   9  24
TORSDOF 6
ENDMDL
