MODEL 1
REMARK VINA RESULT:      -8.5      0.000      0.000
REMARK  6 active torsions:
REMARK  status: ('A' for Active; 'I' for Inactive)
REMARK    1  A    between atoms: C1_2  and  O2_3 
REMARK    2  A    between atoms: C1_2  and  C2_4 
REMARK    3  A    between atoms: C7_9  and  N1_10 
REMARK       I    between atoms: N1_10  and  C8_11 
REMARK    4  A    between atoms: C8_11  and  C9_13 
REMARK    5  A    between atoms: C11_15  and  S1_20 
REMARK    6  A    between atoms: S1_20  and  C15_23 
ROOT
HETATM    1  C9  UNL     1      47.978   1.198 103.586  1.00  0.00     0.055 A 
HETATM    2  C10 UNL     1      47.037   0.167 103.730  1.00  0.00     0.042 A 
HETATM    3  C11 UNL     1      46.431  -0.381 102.598  1.00  0.00     0.065 A 
HETATM    4  C12 UNL     1      46.744   0.091 101.321  1.00  0.00     0.025 A 
HETATM    5  C13 UNL     1      47.694   1.105 101.179  1.00  0.00     0.026 A 
HETATM    6  C14 UNL     1      48.320   1.656 102.306  1.00  0.00     0.049 A 
HETATM    7 CL1  UNL     1      49.530   2.856 102.028  1.00  0.00    -0.083 Cl
ENDROOT
BRANCH   1   8
HETATM    8  C8  UNL     1      48.588   1.720 104.833  1.00  0.00     0.258 C 
HETATM    9  N1  UNL     1      49.679   1.011 105.289  1.00  0.00    -0.322 N 
HETATM   10  H6  UNL     1      49.968   0.203 104.734  1.00  0.00     0.169 HD
HETATM   11  O3  UNL     1      48.115   2.747 105.302  1.00  0.00    -0.267 OA
BRANCH   9  12
HETATM   12  C7  UNL     1      50.466   1.252 106.444  1.00  0.00     0.051 A 
HETATM   13  C2  UNL     1      50.640   0.221 107.399  1.00  0.00     0.064 A 
HETATM   14  C3  UNL     1      51.408   0.453 108.554  1.00  0.00     0.020 A 
HETATM   15  C4  UNL     1      52.007   1.693 108.768  1.00  0.00     0.001 A 
HETATM   16  C5  UNL     1      51.842   2.708 107.833  1.00  0.00     0.002 A 
HETATM   17  C6  UNL     1      51.078   2.490 106.683  1.00  0.00     0.030 A 
BRANCH  13  18
HETATM   18  C1  UNL     1      50.022  -1.117 107.186  1.00  0.00     0.178 C 
HETATM   19  O1  UNL     1      50.167  -1.815 106.196  1.00  0.00    -0.646 OA
BRANCH  18  20
HETATM   20  O2  UNL     1      49.255  -1.525 108.212  1.00  0.00    -0.773 OA
HETATM   21  H1  UNL     1      49.765  -1.281 109.013  1.00  0.00     0.167 HD
ENDBRANCH  18  20
ENDBRANCH  13  18
ENDBRANCH   9  12
ENDBRANCH   1   8
BRANCH   3  22
HETATM   22  S1  UNL     1      45.225  -1.674 102.802  1.00  0.00     0.206 S 
HETATM   23  O4  UNL     1      45.103  -2.364 101.531  1.00  0.00    -0.217 OA
HETATM   24  O5  UNL     1      44.066  -1.056 103.419  1.00  0.00    -0.217 OA
BRANCH  22  25
HETATM   25  C15 UNL     1      45.920  -2.833 103.956  1.00  0.00     0.064 A 
HETATM   26  C16 UNL     1      46.303  -2.386 105.224  1.00  0.00     0.024 A 
HETATM   27  C17 UNL     1      46.851  -3.291 106.132  1.00  0.00     0.002 A 
HETATM   28  C18 UNL     1      47.018  -4.628 105.770  1.00  0.00     0.000 A 
HETATM   29  C19 UNL     1      46.647  -5.066 104.497  1.00  0.00     0.002 A 
HETATM   30  C20 UNL     1      46.098  -4.167 103.583  1.00  0.00     0.024 A 
ENDBRANCH  22  25
ENDBRANCH   3  22
TORSDOF 6
ENDMDL
