MODEL 1
REMARK VINA RESULT:      -7.7      0.000      0.000
REMARK  5 active torsions:
REMARK  status: ('A' for Active; 'I' for Inactive)
REMARK    1  A    between atoms: C1_1  and  C2_2 
REMARK       I    between atoms: C2_2  and  N1_4 
REMARK    2  A    between atoms: N1_4  and  C5_7 
REMARK    3  A    between atoms: C5_7  and  C6_8 
REMARK    4  A    between atoms: N2_16  and  C16_19 
REMARK    5  A    between atoms: C16_19  and  C17_20 
ROOT
HETATM    1  C2  UNL     1      51.861   1.705 108.447  1.00  0.00     0.153 C 
HETATM    2  N1  UNL     1      51.576   2.811 107.636  1.00  0.00    -0.354 N 
HETATM    3  O1  UNL     1      52.607   1.988 109.481  1.00  0.00    -0.177 OA
HETATM    4  C4  UNL     1      50.820   2.733 106.428  1.00  0.00     0.089 A 
HETATM    5  C12 UNL     1      51.507   1.974 105.307  1.00  0.00     0.055 A 
HETATM    6  C13 UNL     1      50.451   1.133 104.622  1.00  0.00     0.275 A 
HETATM    7  N2  UNL     1      49.404   1.989 104.172  1.00  0.00     0.092 N 
HETATM    8  C14 UNL     1      48.696   2.635 105.246  1.00  0.00     0.275 C 
HETATM    9  C15 UNL     1      49.386   2.333 106.584  1.00  0.00     0.055 A 
HETATM   10 CL1  UNL     1      50.575   2.603 106.659  1.00  0.00    -0.145 Cl
HETATM   11  H29 UNL     1      50.423   2.048 105.409  1.00  0.00     0.145 HD
ENDROOT
BRANCH   2  12
HETATM   12  C5  UNL     1      52.120   4.119 108.072  1.00  0.00     0.163 C 
BRANCH  12  13
HETATM   13  C6  UNL     1      52.736   4.861 106.953  1.00  0.00    -0.040 A 
HETATM   14  C7  UNL     1      54.020   4.599 106.521  1.00  0.00     0.009 A 
HETATM   15  C8  UNL     1      54.569   5.300 105.483  1.00  0.00     0.001 A 
HETATM   16  C9  UNL     1      53.881   6.299 104.813  1.00  0.00     0.000 A 
HETATM   17  C10 UNL     1      52.600   6.544 105.259  1.00  0.00     0.001 A 
HETATM   18  C11 UNL     1      52.022   5.856 106.301  1.00  0.00     0.009 A 
ENDBRANCH  12  13
ENDBRANCH   2  12
BRANCH   1  19
HETATM   19  C1  UNL     1      51.426   0.312 108.264  1.00  0.00     0.083 C 
HETATM   20  C3  UNL     1      50.449  -0.027 109.401  1.00  0.00     0.013 C 
ENDBRANCH   1  19
BRANCH   7  21
HETATM   21  C16 UNL     1      48.551   1.425 103.177  1.00  0.00     0.311 C 
BRANCH  21  22
HETATM   22  C17 UNL     1      48.680   2.204 101.925  1.00  0.00    -0.030 A 
HETATM   23  C18 UNL     1      47.894   3.327 101.703  1.00  0.00     0.009 A 
HETATM   24  C19 UNL     1      48.023   4.061 100.531  1.00  0.00     0.001 A 
HETATM   25  C20 UNL     1      48.924   3.713  99.545  1.00  0.00     0.000 A 
HETATM   26  C21 UNL     1      49.697   2.598  99.776  1.00  0.00     0.001 A 
HETATM   27  C22 UNL     1      49.567   1.869 100.942  1.00  0.00     0.009 A 
ENDBRANCH  21  22
ENDBRANCH   7  21
TORSDOF 5
ENDMDL
