MODEL 1
REMARK VINA RESULT:      -8.1      0.000      0.000
REMARK  5 active torsions:
REMARK  status: ('A' for Active; 'I' for Inactive)
REMARK    1  A    between atoms: C11_12  and  C17_19 
REMARK    2  A    between atoms: C13_14  and  O2_18 
REMARK    3  A    between atoms: C17_19  and  C18_20 
REMARK    4  A    between atoms: C18_20  and  C19_21 
REMARK    5  A    between atoms: C19_21  and  C20_22 
ROOT
HETATM    1  C1  UNL     1      48.183   3.867 100.158  1.00  0.00     0.034 C 
HETATM    2  C2  UNL     1      47.469   3.323 101.404  1.00  0.00     0.013 C 
HETATM    3  C3  UNL     1      48.458   3.158 102.568  1.00  0.00     0.032 C 
HETATM    4  C4  UNL     1      49.013   4.553 102.939  1.00  0.00     0.054 C 
HETATM    5  C5  UNL     1      49.694   5.129 101.708  1.00  0.00    -0.014 C 
HETATM    6  C6  UNL     1      49.311   4.828 100.452  1.00  0.00    -0.087 C 
HETATM    7  C7  UNL     1      47.919   2.442 103.820  1.00  0.00     0.065 C 
HETATM    8  O1  UNL     1      48.999   2.257 104.758  1.00  0.00    -0.340 OA
HETATM    9  C8  UNL     1      49.819   3.331 104.988  1.00  0.00     0.080 A 
HETATM   10  C9  UNL     1      49.853   4.488 104.197  1.00  0.00     0.017 A 
HETATM   11  C10 UNL     1      50.633   3.199 106.121  1.00  0.00     0.044 A 
HETATM   12  C11 UNL     1      51.465   4.243 106.528  1.00  0.00    -0.053 A 
HETATM   13  C12 UNL     1      51.435   5.437 105.806  1.00  0.00     0.044 A 
HETATM   14  C13 UNL     1      50.622   5.561 104.677  1.00  0.00     0.075 A 
HETATM   15  C14 UNL     1      50.006   5.403  99.250  1.00  0.00     0.043 C 
HETATM   16  C15 UNL     1      47.464   1.013 103.476  1.00  0.00     0.046 C 
HETATM   17  C16 UNL     1      46.750   3.153 104.521  1.00  0.00     0.046 C 
ENDROOT
BRANCH  12  18
HETATM   18  C17 UNL     1      52.329   4.107 107.757  1.00  0.00     0.039 C 
BRANCH  18  19
HETATM   19  C18 UNL     1      52.671   2.644 108.048  1.00  0.00     0.005 C 
BRANCH  19  20
HETATM   20  C19 UNL     1      52.281   2.199 109.460  1.00  0.00    -0.000 C 
BRANCH  20  21
HETATM   21  C20 UNL     1      51.865   0.730 109.540  1.00  0.00    -0.005 C 
HETATM   22  C21 UNL     1      50.736   0.420 108.569  1.00  0.00     0.005 C 
ENDBRANCH  20  21
ENDBRANCH  19  20
ENDBRANCH  18  19
ENDBRANCH  12  18
BRANCH  14  23
HETATM   23  O2  UNL     1      50.603   6.809 104.115  1.00  0.00    -0.360 OA
HETATM   24  H19 UNL     1      51.449   7.247 104.304  1.00  0.00     0.217 HD
ENDBRANCH  14  23
TORSDOF 5
ENDMDL
