MODEL 1
REMARK VINA RESULT:      -7.6      0.000      0.000
REMARK  2 active torsions:
REMARK  status: ('A' for Active; 'I' for Inactive)
REMARK    1  A    between atoms: C16_24  and  C18_26 
REMARK    2  A    between atoms: C18_26  and  O5_29 
ROOT
HETATM    1 NA1  UNL     1      47.629   4.459  99.384  1.00  0.00     0.000 Na
HETATM    2  O1  UNL     1      49.811   4.823  97.664  1.00  0.00    -0.244 OA
HETATM    3  C1  UNL     1      49.558   3.646  97.905  1.00  0.00     0.357 A 
HETATM    4  N1  UNL     1      49.298   3.160  99.176  1.00  0.00    -0.305 N 
HETATM    5  C2  UNL     1      49.258   3.833 100.414  1.00  0.00     0.050 A 
HETATM    6  C3  UNL     1      49.960   4.987 100.756  1.00  0.00    -0.024 A 
HETATM    7  C4  UNL     1      49.821   5.577 102.040  1.00  0.00    -0.049 A 
HETATM    8  C5  UNL     1      48.986   5.053 103.012  1.00  0.00     0.015 A 
HETATM    9  C6  UNL     1      48.320   3.886 102.689  1.00  0.00    -0.049 A 
HETATM   10  C7  UNL     1      48.462   3.278 101.423  1.00  0.00    -0.024 A 
HETATM   11  C8  UNL     1      47.573   2.067 101.342  1.00  0.00     0.042 C 
HETATM   12  C9  UNL     1      47.277   1.790 102.821  1.00  0.00     0.009 C 
HETATM   13  C10 UNL     1      47.341   3.141 103.541  1.00  0.00     0.039 C 
HETATM   14  C11 UNL     1      50.661   6.811 102.163  1.00  0.00     0.039 C 
HETATM   15  C12 UNL     1      51.678   6.584 101.046  1.00  0.00     0.009 C 
HETATM   16  C13 UNL     1      50.941   5.797  99.956  1.00  0.00     0.042 C 
HETATM   17  N2  UNL     1      49.528   2.714  96.951  1.00  0.00    -0.100 NA
HETATM   18  S1  UNL     1      48.220   1.825  96.811  1.00  0.00     0.310 S 
HETATM   19  O2  UNL     1      47.732   1.202  98.043  1.00  0.00    -0.196 OA
HETATM   20  O3  UNL     1      48.138   0.989  95.619  1.00  0.00    -0.196 OA
HETATM   21  C14 UNL     1      46.908   3.052  96.492  1.00  0.00     0.192 A 
HETATM   22  O4  UNL     1      46.384   3.254  95.234  1.00  0.00    -0.309 OA
HETATM   23  C15 UNL     1      45.475   4.253  95.318  1.00  0.00     0.153 A 
HETATM   24  C16 UNL     1      45.378   4.741  96.605  1.00  0.00     0.001 A 
HETATM   25  C17 UNL     1      46.272   3.929  97.360  1.00  0.00     0.063 A 
HETATM   26  H1  UNL     1      48.880   2.230  99.165  1.00  0.00     0.171 HD
ENDROOT
BRANCH  24  27
HETATM   27  C18 UNL     1      44.517   5.865  97.109  1.00  0.00     0.079 C 
HETATM   28  C19 UNL     1      43.099   5.372  97.413  1.00  0.00     0.051 C 
HETATM   29  C20 UNL     1      44.463   7.038  96.122  1.00  0.00     0.051 C 
BRANCH  27  30
HETATM   30  O5  UNL     1      45.035   6.402  98.336  1.00  0.00    -0.386 OA
HETATM   31  H23 UNL     1      45.238   7.340  98.164  1.00  0.00     0.211 HD
ENDBRANCH  27  30
ENDBRANCH  24  27
TORSDOF 2
ENDMDL
