MODEL 1
REMARK VINA RESULT:      -7.5      0.000      0.000
REMARK  8 active torsions:
REMARK  status: ('A' for Active; 'I' for Inactive)
REMARK    1  A    between atoms: O1_1  and  C1_2 
REMARK    2  A    between atoms: O1_1  and  C8_10 
REMARK    3  A    between atoms: C1_2  and  C2_3 
REMARK    4  A    between atoms: C11_13  and  C12_14 
REMARK    5  A    between atoms: C12_14  and  N1_15 
REMARK    6  A    between atoms: N1_15  and  C13_16 
REMARK    7  A    between atoms: C13_16  and  C14_17 
REMARK    8  A    between atoms: C14_17  and  O2_18 
ROOT
HETATM    1  C8  UNL     1      51.655   5.917 105.396  1.00  0.00     0.069 A 
HETATM    2  C9  UNL     1      50.610   5.833 104.473  1.00  0.00     0.037 A 
HETATM    3  C10 UNL     1      50.758   6.335 103.177  1.00  0.00     0.011 A 
HETATM    4  C11 UNL     1      51.959   6.939 102.788  1.00  0.00    -0.030 A 
HETATM    5  C16 UNL     1      53.009   7.012 103.712  1.00  0.00     0.011 A 
HETATM    6  C17 UNL     1      52.858   6.507 105.009  1.00  0.00     0.037 A 
ENDROOT
BRANCH   1   7
HETATM    7  O1  UNL     1      51.373   5.387 106.624  1.00  0.00    -0.347 OA
BRANCH   7   8
HETATM    8  C1  UNL     1      52.415   4.663 107.273  1.00  0.00     0.214 C 
BRANCH   8   9
HETATM    9  C2  UNL     1      51.916   3.271 107.578  1.00  0.00    -0.031 A 
HETATM   10  C3  UNL     1      52.369   2.577 108.708  1.00  0.00     0.051 A 
HETATM   11  C4  UNL     1      51.884   1.301 108.980  1.00  0.00     0.117 A 
HETATM   12  F1  UNL     1      52.326   0.647 110.062  1.00  0.00    -0.206 F 
HETATM   13  C5  UNL     1      50.950   0.694 108.149  1.00  0.00     0.042 A 
HETATM   14  C6  UNL     1      50.490   1.374 107.024  1.00  0.00     0.004 A 
HETATM   15  C7  UNL     1      50.969   2.656 106.742  1.00  0.00     0.009 A 
ENDBRANCH   8   9
ENDBRANCH   7   8
ENDBRANCH   1   7
BRANCH   4  16
HETATM   16  C12 UNL     1      52.133   7.469 101.385  1.00  0.00     0.309 C 
BRANCH  16  17
HETATM   17  N1  UNL     1      52.163   8.931 101.389  1.00  0.00     0.102 N 
HETATM   18  H11 UNL     1      52.882   9.230 102.055  1.00  0.00     0.317 HD
BRANCH  17  19
HETATM   19  C13 UNL     1      52.504   9.481 100.058  1.00  0.00     0.313 C 
HETATM   20  C15 UNL     1      51.367   9.147  99.096  1.00  0.00     0.054 C 
BRANCH  19  21
HETATM   21  C14 UNL     1      52.680  11.001 100.113  1.00  0.00     0.173 C 
HETATM   22  O3  UNL     1      52.408  11.803  99.232  1.00  0.00    -0.648 OA
BRANCH  21  23
HETATM   23  O2  UNL     1      53.193  11.426 101.286  1.00  0.00    -0.775 OA
HETATM   24  H13 UNL     1      54.157  11.265 101.195  1.00  0.00     0.167 HD
ENDBRANCH  21  23
ENDBRANCH  19  21
ENDBRANCH  17  19
ENDBRANCH  16  17
ENDBRANCH   4  16
TORSDOF 8
ENDMDL
