MODEL 1
REMARK VINA RESULT:      -9.3      0.000      0.000
REMARK  2 active torsions:
REMARK  status: ('A' for Active; 'I' for Inactive)
REMARK    1  A    between atoms: C11_16  and  N5_26 
REMARK    2  A    between atoms: C17_23  and  N6_27 
ROOT
HETATM    1  O1  UNL     1      50.118   1.824  99.570  1.00  0.00    -0.245 OA
HETATM    2  C1  UNL     1      49.721   2.532 100.490  1.00  0.00     0.346 A 
HETATM    3  N1  UNL     1      48.765   2.129 101.385  1.00  0.00    -0.199 NA
HETATM    4  C2  UNL     1      48.410   2.947 102.323  1.00  0.00     0.038 A 
HETATM    5  C3  UNL     1      48.965   4.307 102.508  1.00  0.00     0.051 A 
HETATM    6  C4  UNL     1      49.895   4.673 101.620  1.00  0.00     0.011 A 
HETATM    7  N2  UNL     1      50.254   3.791 100.639  1.00  0.00    -0.311 N 
HETATM    8  C5  UNL     1      50.579   6.003 101.632  1.00  0.00     0.068 A 
HETATM    9  C6  UNL     1      47.357   2.488 103.299  1.00  0.00     0.070 A 
HETATM   10  O2  UNL     1      48.617   3.795 100.644  1.00  0.00    -0.247 OA
HETATM   11  C7  UNL     1      48.954   4.014 101.800  1.00  0.00     0.325 A 
HETATM   12  N3  UNL     1      49.690   5.114 102.219  1.00  0.00    -0.309 N 
HETATM   13  C8  UNL     1      50.278   6.109 101.410  1.00  0.00     0.036 A 
HETATM   14  C9  UNL     1      50.376   6.023 100.017  1.00  0.00     0.032 A 
HETATM   15  C10 UNL     1      50.984   7.047  99.279  1.00  0.00     0.038 A 
HETATM   16  C11 UNL     1      51.504   8.163  99.941  1.00  0.00     0.103 A 
HETATM   17  C12 UNL     1      51.420   8.260 101.333  1.00  0.00     0.038 A 
HETATM   18  C13 UNL     1      50.811   7.231 102.060  1.00  0.00     0.032 A 
HETATM   19  N4  UNL     1      48.656   3.199 102.884  1.00  0.00    -0.309 N 
HETATM   20  C14 UNL     1      47.835   2.053 102.891  1.00  0.00     0.036 A 
HETATM   21  C15 UNL     1      47.832   1.275 104.058  1.00  0.00     0.032 A 
HETATM   22  C16 UNL     1      47.039   0.127 104.154  1.00  0.00     0.038 A 
HETATM   23  C17 UNL     1      46.233  -0.247 103.071  1.00  0.00     0.103 A 
HETATM   24  C18 UNL     1      46.220   0.524 101.904  1.00  0.00     0.038 A 
HETATM   25  C19 UNL     1      47.019   1.671 101.821  1.00  0.00     0.032 A 
HETATM   26  H2  UNL     1      50.954   4.030  99.948  1.00  0.00     0.170 HD
HETATM   27  H9  UNL     1      49.666   5.306 103.209  1.00  0.00     0.170 HD
HETATM   28  H14 UNL     1      49.210   3.353 103.712  1.00  0.00     0.170 HD
ENDROOT
BRANCH  16  29
HETATM   29  N5  UNL     1      52.142   9.238  99.172  1.00  0.00    -0.116 N 
HETATM   30  O3  UNL     1      51.724   9.452  98.025  1.00  0.00    -0.532 OA
HETATM   31  O4  UNL     1      53.060   9.871  99.714  1.00  0.00    -0.532 OA
ENDBRANCH  16  29
BRANCH  23  32
HETATM   32  N6  UNL     1      45.397  -1.449 103.163  1.00  0.00    -0.116 N 
HETATM   33  O5  UNL     1      45.969  -2.536 103.338  1.00  0.00    -0.532 OA
HETATM   34  O6  UNL     1      44.171  -1.310 103.062  1.00  0.00    -0.532 OA
ENDBRANCH  23  32
TORSDOF 2
ENDMDL
