MODEL 1
REMARK VINA RESULT:      -8.8      0.000      0.000
REMARK  8 active torsions:
REMARK  status: ('A' for Active; 'I' for Inactive)
REMARK    1  A    between atoms: C1_1  and  C2_2 
REMARK       I    between atoms: C1_1  and  N1_3 
REMARK    2  A    between atoms: N1_3  and  C14_18 
REMARK    3  A    between atoms: N3_6  and  C9_13 
REMARK    4  A    between atoms: C9_13  and  C10_14 
REMARK    5  A    between atoms: C10_14  and  C11_15 
REMARK    6  A    between atoms: C11_15  and  C12_16 
REMARK    7  A    between atoms: C12_16  and  C13_17 
REMARK    8  A    between atoms: C13_17  and  O2_28 
ROOT
HETATM    1  C2  UNL     1      51.052   1.929 106.161  1.00  0.00     0.157 A 
HETATM    2  N2  UNL     1      51.555   3.131 105.827  1.00  0.00    -0.166 NA
HETATM    3  N3  UNL     1      52.149   3.573 106.949  1.00  0.00    -0.268 N 
HETATM    4  C3  UNL     1      52.081   2.698 108.003  1.00  0.00     0.065 A 
HETATM    5  C4  UNL     1      51.347   1.614 107.527  1.00  0.00     0.028 A 
HETATM    6  C5  UNL     1      52.578   2.756 109.313  1.00  0.00     0.032 A 
HETATM    7  C6  UNL     1      52.301   1.678 110.159  1.00  0.00     0.002 A 
HETATM    8  C7  UNL     1      51.551   0.591 109.716  1.00  0.00     0.001 A 
HETATM    9  C8  UNL     1      51.063   0.546 108.405  1.00  0.00     0.016 A 
ENDROOT
BRANCH   1  10
HETATM   10  C1  UNL     1      50.323   1.101 105.178  1.00  0.00     0.277 C 
HETATM   11  N1  UNL     1      49.205   1.746 104.667  1.00  0.00    -0.321 N 
HETATM   12  H1  UNL     1      48.979   2.617 105.120  1.00  0.00     0.169 HD
HETATM   13  O1  UNL     1      50.691  -0.034 104.895  1.00  0.00    -0.266 OA
BRANCH  11  14
HETATM   14  C14 UNL     1      48.305   1.305 103.663  1.00  0.00     0.046 A 
HETATM   15  C15 UNL     1      48.546   1.669 102.296  1.00  0.00     0.001 A 
HETATM   16  C16 UNL     1      47.642   1.203 101.303  1.00  0.00    -0.024 A 
HETATM   17  C20 UNL     1      49.628   2.471 101.842  1.00  0.00     0.014 A 
HETATM   18  C17 UNL     1      46.548   0.409 101.662  1.00  0.00     0.012 A 
HETATM   19  C23 UNL     1      47.836   1.530  99.950  1.00  0.00     0.012 A 
HETATM   20  C18 UNL     1      46.327   0.062 102.989  1.00  0.00     0.003 A 
HETATM   21  C19 UNL     1      47.200   0.505 103.979  1.00  0.00     0.030 A 
HETATM   22  C22 UNL     1      48.910   2.318  99.546  1.00  0.00     0.001 A 
HETATM   23  C21 UNL     1      49.806   2.789 100.492  1.00  0.00     0.001 A 
ENDBRANCH  11  14
ENDBRANCH   1  10
BRANCH   3  24
HETATM   24  C9  UNL     1      52.791   4.879 106.933  1.00  0.00     0.151 C 
BRANCH  24  25
HETATM   25  C10 UNL     1      54.116   4.848 106.178  1.00  0.00     0.022 C 
BRANCH  25  26
HETATM   26  C11 UNL     1      54.279   5.969 105.147  1.00  0.00     0.004 C 
BRANCH  26  27
HETATM   27  C12 UNL     1      53.081   6.915 105.040  1.00  0.00     0.026 C 
BRANCH  27  28
HETATM   28  C13 UNL     1      52.226   6.662 103.803  1.00  0.00     0.164 C 
BRANCH  28  29
HETATM   29  O2  UNL     1      50.851   6.676 104.154  1.00  0.00    -0.401 OA
HETATM   30  H23 UNL     1      50.649   5.839 104.608  1.00  0.00     0.209 HD
ENDBRANCH  28  29
ENDBRANCH  27  28
ENDBRANCH  26  27
ENDBRANCH  25  26
ENDBRANCH  24  25
ENDBRANCH   3  24
TORSDOF 8
ENDMDL
