MODEL 1
REMARK VINA RESULT:      -8.1      0.000      0.000
REMARK  3 active torsions:
REMARK  status: ('A' for Active; 'I' for Inactive)
REMARK    1  A    between atoms: N2_5  and  C5_7 
REMARK    2  A    between atoms: C6_8  and  C7_9 
REMARK    3  A    between atoms: C7_9  and  C8_10 
ROOT
HETATM    1  C1  UNL     1      47.039   1.640 104.113  1.00  0.00     0.303 A 
HETATM    2  N1  UNL     1      47.412   2.287 102.893  1.00  0.00     0.101 N 
HETATM    3  C2  UNL     1      48.596   3.071 103.174  1.00  0.00     0.303 A 
HETATM    4  C3  UNL     1      49.692   2.334 103.866  1.00  0.00     0.303 C 
HETATM    5  N2  UNL     1      49.211   1.657 105.061  1.00  0.00     0.096 N 
HETATM    6  C4  UNL     1      48.180   0.760 104.636  1.00  0.00     0.303 C 
HETATM    7  C6  UNL     1      47.531   1.458 101.749  1.00  0.00     0.260 A 
HETATM    8  C9  UNL     1      48.058   2.312 100.639  1.00  0.00    -0.025 A 
HETATM    9  C10 UNL     1      47.479   3.546 100.413  1.00  0.00     0.009 A 
HETATM   10  C11 UNL     1      47.901   4.380  99.409  1.00  0.00     0.001 A 
HETATM   11  C12 UNL     1      48.933   3.978  98.604  1.00  0.00     0.000 A 
HETATM   12  C13 UNL     1      49.550   2.756  98.785  1.00  0.00     0.001 A 
HETATM   13  C14 UNL     1      49.092   1.940  99.813  1.00  0.00     0.009 A 
HETATM   14 CL1  UNL     1      47.867   2.133 102.635  1.00  0.00    -0.145 Cl
HETATM   15 CL2  UNL     1      47.867   2.133 102.634  1.00  0.00    -0.145 Cl
HETATM   16  H33 UNL     1      48.555   1.806 103.772  1.00  0.00     0.145 HD
HETATM   17  H34 UNL     1      48.556   1.805 103.774  1.00  0.00     0.145 HD
ENDROOT
BRANCH   7  18
HETATM   18  C7  UNL     1      46.285   0.744 101.313  1.00  0.00     0.079 C 
BRANCH  18  19
HETATM   19  C8  UNL     1      46.416  -0.714 101.145  1.00  0.00    -0.056 A 
HETATM   20  C15 UNL     1      47.070  -1.288 100.083  1.00  0.00     0.007 A 
HETATM   21  C16 UNL     1      47.183  -2.661  99.928  1.00  0.00     0.001 A 
HETATM   22  C17 UNL     1      46.620  -3.483 100.871  1.00  0.00     0.000 A 
HETATM   23  C18 UNL     1      45.961  -2.928 101.937  1.00  0.00     0.001 A 
HETATM   24  C19 UNL     1      45.857  -1.562 102.079  1.00  0.00     0.007 A 
ENDBRANCH  18  19
ENDBRANCH   7  18
BRANCH   5  25
HETATM   25  C5  UNL     1      50.296   1.056 105.790  1.00  0.00     0.223 C 
HETATM   26  C20 UNL     1      50.523   1.778 107.122  1.00  0.00     0.036 C 
HETATM   27  C21 UNL     1      51.466   0.924 107.937  1.00  0.00     0.002 C 
HETATM   28  C22 UNL     1      50.720  -0.270 108.501  1.00  0.00     0.000 C 
HETATM   29  C23 UNL     1      49.706  -0.723 107.465  1.00  0.00     0.002 C 
HETATM   30  C24 UNL     1      50.216  -0.391 106.055  1.00  0.00     0.036 C 
ENDBRANCH   5  25
TORSDOF 3
ENDMDL
