MODEL 1
REMARK VINA RESULT:      -5.6      0.000      0.000
REMARK  22 active torsions:
REMARK  status: ('A' for Active; 'I' for Inactive)
REMARK    1  A    between atoms: C1_1  and  C2_2 
REMARK    2  A    between atoms: C1_1  and  C6_6 
REMARK    3  A    between atoms: C2_2  and  C3_3 
REMARK    4  A    between atoms: C3_3  and  C7_7 
REMARK    5  A    between atoms: C4_4  and  C5_5 
REMARK    6  A    between atoms: C4_4  and  C10_10 
REMARK    7  A    between atoms: C5_5  and  C6_6 
REMARK    8  A    between atoms: C7_7  and  C8_8 
REMARK    9  A    between atoms: C8_8  and  C11_11 
REMARK   10  A    between atoms: C9_9  and  C10_10 
REMARK   11  A    between atoms: C11_11  and  C12_12 
REMARK   12  A    between atoms: C12_12  and  C14_14 
REMARK   13  A    between atoms: C15_15  and  C16_16 
REMARK   14  A    between atoms: C16_16  and  C17_17 
REMARK   15  A    between atoms: C16_16  and  O2_20 
REMARK   16  A    between atoms: C17_17  and  C18_18 
REMARK   17  A    between atoms: C17_17  and  N1_21 
REMARK   18  A    between atoms: C18_18  and  O1_19 
REMARK       I    between atoms: N1_21  and  C19_22 
REMARK   19  A    between atoms: C19_22  and  C20_23 
REMARK   20  A    between atoms: C20_23  and  C21_25 
REMARK   21  A    between atoms: C21_25  and  C22_26 
REMARK   22  A    between atoms: C22_26  and  C23_27 
ROOT
HETATM    1  C16 UNL     1      51.821   5.068 106.028  1.00  0.00     0.165 C 
ENDROOT
BRANCH   1   2
HETATM    2  C15 UNL     1      50.638   4.179 106.282  1.00  0.00     0.003 C 
HETATM    3  C14 UNL     1      50.436   3.003 105.663  1.00  0.00    -0.028 C 
BRANCH   3   4
HETATM    4  C12 UNL     1      49.242   2.118 105.893  1.00  0.00     0.027 C 
BRANCH   4   5
HETATM    5  C11 UNL     1      48.972   1.173 104.716  1.00  0.00     0.004 C 
BRANCH   5   6
HETATM    6  C8  UNL     1      47.596   1.410 104.085  1.00  0.00     0.000 C 
BRANCH   6   7
HETATM    7  C7  UNL     1      46.952   2.747 104.474  1.00  0.00     0.000 C 
BRANCH   7   8
HETATM    8  C3  UNL     1      46.905   3.771 103.339  1.00  0.00     0.000 C 
BRANCH   8   9
HETATM    9  C2  UNL     1      48.280   4.394 103.069  1.00  0.00     0.000 C 
BRANCH   9  10
HETATM   10  C1  UNL     1      48.496   4.764 101.596  1.00  0.00     0.000 C 
BRANCH  10  11
HETATM   11  C6  UNL     1      49.845   4.268 101.053  1.00  0.00     0.000 C 
BRANCH  11  12
HETATM   12  C5  UNL     1      49.675   3.273  99.898  1.00  0.00     0.000 C 
BRANCH  12  13
HETATM   13  C4  UNL     1      49.755   1.805 100.333  1.00  0.00     0.000 C 
BRANCH  13  14
HETATM   14  C10 UNL     1      48.397   1.193 100.679  1.00  0.00    -0.000 C 
BRANCH  14  15
HETATM   15  C9  UNL     1      47.327   1.635  99.677  1.00  0.00    -0.005 C 
HETATM   16  C13 UNL     1      45.994   1.890 100.361  1.00  0.00     0.005 C 
ENDBRANCH  14  15
ENDBRANCH  13  14
ENDBRANCH  12  13
ENDBRANCH  11  12
ENDBRANCH  10  11
ENDBRANCH   9  10
ENDBRANCH   8   9
ENDBRANCH   7   8
ENDBRANCH   6   7
ENDBRANCH   5   6
ENDBRANCH   4   5
ENDBRANCH   3   4
ENDBRANCH   1   2
BRANCH   1  17
HETATM   17  C17 UNL     1      53.048   4.764 106.937  1.00  0.00     0.140 C 
BRANCH  17  18
HETATM   18  C18 UNL     1      54.365   4.636 106.146  1.00  0.00     0.192 C 
BRANCH  18  19
HETATM   19  O1  UNL     1      54.560   5.761 105.282  1.00  0.00    -0.399 OA
HETATM   20  H34 UNL     1      54.442   6.556 105.848  1.00  0.00     0.209 HD
ENDBRANCH  18  19
ENDBRANCH  17  18
BRANCH  17  21
HETATM   21  N1  UNL     1      52.831   3.513 107.683  1.00  0.00    -0.352 N 
HETATM   22  C19 UNL     1      52.556   3.500 109.029  1.00  0.00     0.218 C 
HETATM   23  O3  UNL     1      52.529   4.520 109.711  1.00  0.00    -0.274 OA
HETATM   24  H36 UNL     1      52.801   2.658 107.139  1.00  0.00     0.163 HD
BRANCH  22  25
HETATM   25  C20 UNL     1      52.242   2.124 109.579  1.00  0.00     0.103 C 
BRANCH  25  26
HETATM   26  C21 UNL     1      52.068   1.074 108.481  1.00  0.00     0.009 C 
BRANCH  26  27
HETATM   27  C22 UNL     1      50.854   0.149 108.664  1.00  0.00     0.000 C 
BRANCH  27  28
HETATM   28  C23 UNL     1      50.649  -0.896 107.562  1.00  0.00    -0.005 C 
HETATM   29  C24 UNL     1      49.319  -1.628 107.655  1.00  0.00     0.005 C 
ENDBRANCH  27  28
ENDBRANCH  26  27
ENDBRANCH  25  26
ENDBRANCH  22  25
ENDBRANCH  17  21
ENDBRANCH   1  17
BRANCH   1  30
HETATM   30  O2  UNL     1      51.368   6.412 106.253  1.00  0.00    -0.390 OA
HETATM   31  H35 UNL     1      50.512   6.482 105.783  1.00  0.00     0.210 HD
ENDBRANCH   1  30
TORSDOF 22
ENDMDL
