MODEL 1
REMARK VINA RESULT:      -7.5      0.000      0.000
REMARK  12 active torsions:
REMARK  status: ('A' for Active; 'I' for Inactive)
REMARK    1  A    between atoms: C1_1  and  O5_20 
REMARK    2  A    between atoms: C5_5  and  O4_19 
REMARK    3  A    between atoms: C8_8  and  O2_12 
REMARK    4  A    between atoms: C9_9  and  C10_11 
REMARK    5  A    between atoms: O2_12  and  C16_21 
REMARK    6  A    between atoms: C12_14  and  O7_29 
REMARK    7  A    between atoms: C13_15  and  O3_18 
REMARK    8  A    between atoms: C14_16  and  O8_30 
REMARK    9  A    between atoms: C16_21  and  C17_22 
REMARK   10  A    between atoms: C19_25  and  O11_33 
REMARK   11  A    between atoms: C20_26  and  O10_32 
REMARK   12  A    between atoms: C21_27  and  O9_31 
ROOT
HETATM    1  C1  UNL     1      48.002  -6.962 106.202  1.00  0.00     0.077 A 
HETATM    2  C2  UNL     1      47.470  -5.665 106.195  1.00  0.00     0.011 A 
HETATM    3  C3  UNL     1      46.081  -5.514 106.176  1.00  0.00     0.081 A 
HETATM    4  C4  UNL     1      45.244  -6.633 106.189  1.00  0.00     0.074 A 
HETATM    5  C5  UNL     1      45.799  -7.908 106.212  1.00  0.00     0.071 A 
HETATM    6  C6  UNL     1      47.174  -8.084 106.218  1.00  0.00     0.073 A 
HETATM    7  C7  UNL     1      48.369  -4.470 106.158  1.00  0.00     0.080 C 
HETATM    8  C8  UNL     1      47.647  -3.223 106.651  1.00  0.00     0.170 C 
HETATM    9  C9  UNL     1      46.226  -3.117 106.049  1.00  0.00     0.192 C 
HETATM   10  O1  UNL     1      45.435  -4.311 106.145  1.00  0.00    -0.338 OA
ENDROOT
BRANCH   8  11
HETATM   11  O2  UNL     1      48.481  -2.087 106.335  1.00  0.00    -0.309 OA
BRANCH  11  12
HETATM   12  C16 UNL     1      49.351  -1.689 107.289  1.00  0.00     0.294 C 
HETATM   13  O6  UNL     1      49.574  -2.259 108.341  1.00  0.00    -0.259 OA
BRANCH  12  14
HETATM   14  C17 UNL     1      50.004  -0.421 106.879  1.00  0.00     0.045 A 
HETATM   15  C18 UNL     1      50.702   0.307 107.856  1.00  0.00     0.057 A 
HETATM   16  C19 UNL     1      51.312   1.512 107.512  1.00  0.00     0.102 A 
HETATM   17  C20 UNL     1      51.214   1.992 106.208  1.00  0.00     0.132 A 
HETATM   18  C21 UNL     1      50.503   1.276 105.246  1.00  0.00     0.102 A 
HETATM   19  C22 UNL     1      49.897   0.068 105.568  1.00  0.00     0.057 A 
BRANCH  16  20
HETATM   20  O11 UNL     1      52.000   2.231 108.444  1.00  0.00    -0.358 OA
HETATM   21  H18 UNL     1      52.723   1.695 108.803  1.00  0.00     0.217 HD
ENDBRANCH  16  20
BRANCH  17  22
HETATM   22  O10 UNL     1      51.803   3.174 105.853  1.00  0.00    -0.356 OA
HETATM   23  H17 UNL     1      52.068   3.053 104.921  1.00  0.00     0.218 HD
ENDBRANCH  17  22
BRANCH  18  24
HETATM   24  O9  UNL     1      50.421   1.807 103.988  1.00  0.00    -0.358 OA
HETATM   25  H16 UNL     1      50.929   2.638 103.966  1.00  0.00     0.217 HD
ENDBRANCH  18  24
ENDBRANCH  12  14
ENDBRANCH  11  12
ENDBRANCH   8  11
BRANCH   9  26
HETATM   26  C10 UNL     1      46.154  -2.544 104.636  1.00  0.00    -0.021 A 
HETATM   27  C11 UNL     1      46.293  -1.166 104.381  1.00  0.00     0.049 A 
HETATM   28  C12 UNL     1      46.191  -0.684 103.081  1.00  0.00     0.102 A 
HETATM   29  C13 UNL     1      45.959  -1.552 102.022  1.00  0.00     0.132 A 
HETATM   30  C14 UNL     1      45.830  -2.915 102.255  1.00  0.00     0.102 A 
HETATM   31  C15 UNL     1      45.925  -3.418 103.549  1.00  0.00     0.049 A 
BRANCH  28  32
HETATM   32  O7  UNL     1      46.320   0.652 102.848  1.00  0.00    -0.358 OA
HETATM   33  H14 UNL     1      47.016   0.944 103.467  1.00  0.00     0.217 HD
ENDBRANCH  28  32
BRANCH  29  34
HETATM   34  O3  UNL     1      45.867  -1.047 100.755  1.00  0.00    -0.356 OA
HETATM   35  H9  UNL     1      45.686  -0.094 100.888  1.00  0.00     0.218 HD
ENDBRANCH  29  34
BRANCH  30  36
HETATM   36  O8  UNL     1      45.608  -3.726 101.178  1.00  0.00    -0.358 OA
HETATM   37  H15 UNL     1      44.812  -3.415 100.714  1.00  0.00     0.217 HD
ENDBRANCH  30  36
ENDBRANCH   9  26
BRANCH   1  38
HETATM   38  O5  UNL     1      49.361  -7.114 106.187  1.00  0.00    -0.360 OA
HETATM   39  H11 UNL     1      49.644  -7.292 105.275  1.00  0.00     0.217 HD
ENDBRANCH   1  38
BRANCH   5  40
HETATM   40  O4  UNL     1      45.013  -9.024 106.225  1.00  0.00    -0.361 OA
HETATM   41  H10 UNL     1      45.464  -9.728 105.729  1.00  0.00     0.217 HD
ENDBRANCH   5  40
TORSDOF 12
ENDMDL
