MODEL 1
REMARK VINA RESULT:      -7.0      0.000      0.000
REMARK  16 active torsions:
REMARK  status: ('A' for Active; 'I' for Inactive)
REMARK    1  A    between atoms: C1_1  and  C2_2 
REMARK    2  A    between atoms: C1_1  and  C5_5 
REMARK    3  A    between atoms: C2_2  and  C3_3 
REMARK    4  A    between atoms: C3_3  and  C4_4 
REMARK    5  A    between atoms: C4_4  and  C16_16 
REMARK    6  A    between atoms: C6_6  and  C7_7 
REMARK    7  A    between atoms: C7_7  and  C8_8 
REMARK    8  A    between atoms: C8_8  and  C9_9 
REMARK    9  A    between atoms: C9_9  and  C10_10 
REMARK   10  A    between atoms: C10_10  and  C11_11 
REMARK   11  A    between atoms: C11_11  and  C12_12 
REMARK   12  A    between atoms: C12_12  and  C13_13 
REMARK   13  A    between atoms: C13_13  and  C14_14 
REMARK   14  A    between atoms: C14_14  and  C15_15 
REMARK   15  A    between atoms: C16_16  and  C17_17 
REMARK   16  A    between atoms: C17_17  and  C18_18 
ROOT
HETATM    1  C10 UNL     1      50.629  -1.000 107.161  1.00  0.00     0.000 C 
ENDROOT
BRANCH   1   2
HETATM    2  C9  UNL     1      50.014  -0.408 105.891  1.00  0.00     0.000 C 
BRANCH   2   3
HETATM    3  C8  UNL     1      50.902   0.629 105.196  1.00  0.00     0.004 C 
BRANCH   3   4
HETATM    4  C7  UNL     1      50.129   1.478 104.180  1.00  0.00     0.027 C 
BRANCH   4   5
HETATM    5  C6  UNL     1      48.864   2.053 104.750  1.00  0.00    -0.031 C 
HETATM    6  C5  UNL     1      47.606   1.869 104.319  1.00  0.00    -0.031 C 
BRANCH   6   7
HETATM    7  C1  UNL     1      47.138   1.037 103.159  1.00  0.00     0.027 C 
BRANCH   7   8
HETATM    8  C2  UNL     1      47.215   1.763 101.814  1.00  0.00     0.004 C 
BRANCH   8   9
HETATM    9  C3  UNL     1      47.989   1.062 100.691  1.00  0.00     0.000 C 
BRANCH   9  10
HETATM   10  C4  UNL     1      49.085   1.917 100.039  1.00  0.00     0.000 C 
BRANCH  10  11
HETATM   11  C16 UNL     1      49.730   2.918 101.000  1.00  0.00     0.000 C 
BRANCH  11  12
HETATM   12  C17 UNL     1      49.619   4.347 100.464  1.00  0.00    -0.000 C 
BRANCH  12  13
HETATM   13  C18 UNL     1      49.799   5.414 101.547  1.00  0.00    -0.005 C 
HETATM   14  C19 UNL     1      50.692   6.567 101.117  1.00  0.00     0.005 C 
ENDBRANCH  12  13
ENDBRANCH  11  12
ENDBRANCH  10  11
ENDBRANCH   9  10
ENDBRANCH   8   9
ENDBRANCH   7   8
ENDBRANCH   6   7
ENDBRANCH   4   5
ENDBRANCH   3   4
ENDBRANCH   2   3
ENDBRANCH   1   2
BRANCH   1  15
HETATM   15  C11 UNL     1      50.003  -0.534 108.480  1.00  0.00     0.000 C 
BRANCH  15  16
HETATM   16  C12 UNL     1      50.836   0.448 109.315  1.00  0.00     0.008 C 
BRANCH  16  17
HETATM   17  C13 UNL     1      52.029   1.047 108.564  1.00  0.00     0.088 C 
BRANCH  17  18
HETATM   18  C14 UNL     1      52.306   2.504 108.926  1.00  0.00     0.202 C 
HETATM   19  O1  UNL     1      52.522   2.811 110.101  1.00  0.00    -0.289 OA
BRANCH  18  20
HETATM   20  C15 UNL     1      52.350   3.457 107.825  1.00  0.00     0.219 A 
HETATM   21  N2  UNL     1      51.318   3.815 107.074  1.00  0.00    -0.199 NA
HETATM   22  C20 UNL     1      51.852   4.725 106.210  1.00  0.00     0.186 A 
HETATM   23  C21 UNL     1      53.204   4.893 106.464  1.00  0.00     0.125 A 
HETATM   24  N1  UNL     1      51.195   5.396 105.236  1.00  0.00    -0.239 NA
HETATM   25  C22 UNL     1      54.013   5.759 105.747  1.00  0.00     0.043 A 
HETATM   26  O2  UNL     1      53.538   4.078 107.504  1.00  0.00    -0.285 OA
HETATM   27  C23 UNL     1      53.346   6.458 104.737  1.00  0.00     0.022 A 
HETATM   28  C24 UNL     1      51.981   6.246 104.531  1.00  0.00     0.119 A 
ENDBRANCH  18  20
ENDBRANCH  17  18
ENDBRANCH  16  17
ENDBRANCH  15  16
ENDBRANCH   1  15
TORSDOF 16
ENDMDL
