MODEL 1
REMARK VINA RESULT:      -8.1      0.000      0.000
REMARK  LENOLISIB
REMARK  6 active torsions:
REMARK  status: ('A' for Active; 'I' for Inactive)
REMARK    1  A    between atoms: O_5  and  C_30 
REMARK       I    between atoms: N_6  and  C_19 
REMARK    2  A    between atoms: N_7  and  C_12 
REMARK    3  A    between atoms: N_7  and  C_17 
REMARK    4  A    between atoms: N_8  and  C_24 
REMARK    5  A    between atoms: C_19  and  C_23 
REMARK    6  A    between atoms: C_29  and  C_31 
ROOT
ATOM      1  F           0      52.791   7.988 101.034  0.00  0.00    -0.166 F 
ATOM      2  F           0      50.902   8.939 101.537  0.00  0.00    -0.166 F 
ATOM      3  F           0      51.638   7.292 102.740  0.00  0.00    -0.166 F 
ATOM      4  C           0      51.518   7.723 101.448  0.00  0.00     0.421 C 
ENDROOT
BRANCH   4   5
ATOM      5  C           0      50.814   6.758 100.558  0.00  0.00     0.102 A 
ATOM      6  C           0      50.165   5.654 101.098  0.00  0.00     0.051 A 
ATOM      7  C           0      49.512   4.759 100.257  0.00  0.00     0.049 A 
ATOM      8  C           0      49.538   5.012  98.895  0.00  0.00     0.148 A 
ATOM      9  N           0      50.157   6.075  98.334  0.00  0.00    -0.234 NA
ATOM     10  C           0      50.780   6.923  99.182  0.00  0.00     0.179 A 
BRANCH   7  11
ATOM     11  N           0      48.852   3.636 100.772  0.00  0.00    -0.375 N 
ATOM     12  C           0      49.449   2.926 101.916  0.00  0.00     0.167 C 
ATOM     13  C           0      48.519   1.960 102.591  0.00  0.00     0.030 A 
ATOM     14  C           0      48.725   1.507 103.882  0.00  0.00     0.135 A 
ATOM     15  C           0      47.427   1.415 101.935  0.00  0.00     0.049 A 
ATOM     16  N           0      47.927   0.610 104.501  0.00  0.00    -0.224 NA
ATOM     17  C           0      46.898   0.161 103.761  0.00  0.00     0.235 A 
ATOM     18  N           0      46.597   0.509 102.495  0.00  0.00    -0.246 NA
ATOM     19  C           0      47.171   1.833 100.518  0.00  0.00     0.080 C 
ATOM     20  C           0      47.485   3.318 100.340  0.00  0.00     0.129 C 
BRANCH  14  21
ATOM     21  N           0      49.815   1.979 104.592  0.00  0.00    -0.368 N 
ATOM     22  H           0      50.715   1.562 104.378  0.00  0.00     0.161 HD
BRANCH  21  23
ATOM     23  C           0      49.714   2.607 105.892  0.00  0.00     0.102 C 
ATOM     24  C           0      50.227   1.660 106.975  0.00  0.00     0.046 C 
ATOM     25  C           0      51.738   1.854 106.933  0.00  0.00     0.128 C 
ATOM     26  N           0      51.921   3.227 106.489  0.00  0.00    -0.350 N 
ATOM     27  C           0      50.669   3.794 105.989  0.00  0.00     0.150 C 
ATOM     28  C           0      53.147   3.864 106.554  0.00  0.00     0.219 C 
ATOM     29  O           0      54.174   3.338 106.986  0.00  0.00    -0.273 OA
BRANCH  28  30
ATOM     30  C           0      53.172   5.283 106.046  0.00  0.00     0.098 C 
ATOM     31  C           0      54.578   5.666 105.655  0.00  0.00     0.014 C 
ENDBRANCH  28  30
ENDBRANCH  21  23
ENDBRANCH  14  21
ENDBRANCH   7  11
BRANCH  10  32
ATOM     32  O           0      51.409   8.000  98.612  0.00  0.00    -0.339 OA
ATOM     33  C           0      50.576   8.965  97.981  0.00  0.00     0.211 C 
ENDBRANCH  10  32
ENDBRANCH   4   5
TORSDOF 6
ENDMDL
