MODEL 1
REMARK VINA RESULT:      -5.8      0.000      0.000
REMARK  CAFEINA
REMARK  0 active torsions:
REMARK  status: ('A' for Active; 'I' for Inactive)
ROOT
ATOM      1  O           0      51.293   0.105 108.825  0.00  0.00    -0.265 OA
ATOM      2  O           0      52.700   4.578 108.654  0.00  0.00    -0.246 OA
ATOM      3  N           0      51.654   3.685 106.778  0.00  0.00    -0.263 N 
ATOM      4  N           0      50.316   0.535 106.030  0.00  0.00    -0.302 N 
ATOM      5  N           0      52.007   2.343 108.764  0.00  0.00    -0.246 N 
ATOM      6  N           0      50.525   2.477 104.955  0.00  0.00    -0.206 NA
ATOM      7  C           0      50.944   1.385 106.895  0.00  0.00     0.153 A 
ATOM      8  C           0      51.058   2.565 106.213  0.00  0.00     0.170 A 
ATOM      9  C           0      51.407   1.172 108.227  0.00  0.00     0.283 A 
ATOM     10  C           0      52.160   3.614 108.099  0.00  0.00     0.335 A 
ATOM     11  C           0      50.085   1.238 104.876  0.00  0.00     0.180 A 
ATOM     12  C           0      51.757   4.925 106.018  0.00  0.00     0.137 C 
ATOM     13  C           0      49.953  -0.843 106.260  0.00  0.00     0.132 C 
ATOM     14  C           0      52.521   2.250 110.126  0.00  0.00     0.139 C 
ENDROOT
TORSDOF 0
ENDMDL
