MODEL 1
REMARK VINA RESULT:      -7.9      0.000      0.000
REMARK  IDELALISIB
REMARK  5 active torsions:
REMARK  status: ('A' for Active; 'I' for Inactive)
REMARK    1  A    between atoms: N_3  and  C_17 
REMARK    2  A    between atoms: N_4  and  C_10 
REMARK    3  A    between atoms: N_4  and  C_18 
REMARK    4  A    between atoms: C_10  and  C_11 
REMARK    5  A    between atoms: C_10  and  C_12 
ROOT
ATOM      1  F           0      50.267   6.718  98.062  0.00  0.00    -0.204 F 
ATOM      2  O           0      49.022   4.673  98.828  0.00  0.00    -0.266 OA
ATOM      3  N           0      48.966   4.027 101.093  0.00  0.00    -0.261 N 
ATOM      4  N           0      50.207   5.293 102.680  0.00  0.00    -0.230 NA
ATOM      5  C           0      49.403   4.317 102.388  0.00  0.00     0.147 A 
ATOM      6  C           0      49.333   4.847 100.005  0.00  0.00     0.269 A 
ATOM      7  C           0      50.226   5.978 100.334  0.00  0.00     0.102 A 
ATOM      8  C           0      50.645   6.137 101.655  0.00  0.00     0.089 A 
ATOM      9  C           0      50.662   6.856  99.335  0.00  0.00     0.146 A 
ATOM     10  C           0      51.510   7.192 101.969  0.00  0.00     0.019 A 
ATOM     11  C           0      51.524   7.903  99.661  0.00  0.00     0.030 A 
ATOM     12  C           0      51.948   8.070 100.976  0.00  0.00     0.004 A 
ENDROOT
BRANCH   3  13
ATOM     13  C           0      48.170   2.867 100.798  0.00  0.00     0.068 A 
ATOM     14  C           0      48.779   1.621 100.709  0.00  0.00     0.018 A 
ATOM     15  C           0      48.006   0.496 100.423  0.00  0.00     0.002 A 
ATOM     16  C           0      46.631   0.626 100.228  0.00  0.00     0.000 A 
ATOM     17  C           0      46.029   1.880 100.319  0.00  0.00     0.002 A 
ATOM     18  C           0      46.801   3.005 100.604  0.00  0.00     0.018 A 
ENDBRANCH   3  13
BRANCH   5  19
ATOM     19  C           0      48.890   3.511 103.564  0.00  0.00     0.137 C 
BRANCH  19  20
ATOM     20  N           0      49.677   3.898 104.706  0.00  0.00    -0.353 N 
ATOM     21  H           0      49.810   4.886 104.893  0.00  0.00     0.162 HD
BRANCH  20  22
ATOM     22  C           0      50.206   2.998 105.620  0.00  0.00     0.158 A 
ATOM     23  N           0      49.851   1.685 105.611  0.00  0.00    -0.206 NA
ATOM     24  C           0      50.410   0.868 106.535  0.00  0.00     0.202 A 
ATOM     25  N           0      51.300   1.170 107.505  0.00  0.00    -0.203 NA
ATOM     26  C           0      51.643   2.481 107.501  0.00  0.00     0.184 A 
ATOM     27  N           0      52.522   3.090 108.359  0.00  0.00    -0.205 NA
ATOM     28  C           0      51.121   3.389 106.590  0.00  0.00     0.128 A 
ATOM     29  C           0      52.537   4.350 107.980  0.00  0.00     0.177 A 
ATOM     30  N           0      51.707   4.579 106.915  0.00  0.00    -0.332 N 
ATOM     31  H           0      51.557   5.469 106.456  0.00  0.00     0.168 HD
ENDBRANCH  20  22
ENDBRANCH  19  20
BRANCH  19  32
ATOM     32  C           0      47.414   3.811 103.785  0.00  0.00     0.030 C 
ATOM     33  C           0      46.675   2.622 104.384  0.00  0.00     0.003 C 
ENDBRANCH  19  32
ENDBRANCH   5  19
TORSDOF 5
ENDMDL
