MODEL 1
REMARK VINA RESULT:      -6.7      0.000      0.000
REMARK  18 active torsions:
REMARK  status: ('A' for Active; 'I' for Inactive)
REMARK    1  A    between atoms: C2_2  and  C3_3 
REMARK    2  A    between atoms: C3_3  and  C4_4 
REMARK    3  A    between atoms: C4_4  and  C5_5 
REMARK    4  A    between atoms: C5_5  and  C6_6 
REMARK    5  A    between atoms: C6_6  and  C7_7 
REMARK    6  A    between atoms: C7_7  and  C8_8 
REMARK    7  A    between atoms: C8_8  and  C9_9 
REMARK    8  A    between atoms: C9_9  and  C10_10 
REMARK    9  A    between atoms: C10_10  and  C11_11 
REMARK   10  A    between atoms: C11_11  and  C12_12 
REMARK   11  A    between atoms: C12_12  and  C13_13 
REMARK   12  A    between atoms: C13_13  and  C14_14 
REMARK   13  A    between atoms: C14_14  and  C15_15 
REMARK   14  A    between atoms: C15_15  and  C16_16 
REMARK       I    between atoms: C16_16  and  N1_17 
REMARK   15  A    between atoms: N1_17  and  C17_19 
REMARK   16  A    between atoms: C17_19  and  C18_20 
REMARK   17  A    between atoms: C18_20  and  C19_21 
REMARK   18  A    between atoms: C24_27  and  O2_30 
ROOT
HETATM    1  C16 UNL     1      49.776  -1.509 107.452  1.00  0.00     0.217 C 
HETATM    2  N1  UNL     1      48.608  -2.205 107.687  1.00  0.00    -0.361 N 
HETATM    3  O1  UNL     1      50.455  -1.657 106.442  1.00  0.00    -0.274 OA
HETATM    4  H32 UNL     1      48.254  -2.222 108.635  1.00  0.00     0.162 HD
ENDROOT
BRANCH   1   5
HETATM    5  C15 UNL     1      50.108  -0.523 108.557  1.00  0.00     0.103 C 
BRANCH   5   6
HETATM    6  C14 UNL     1      51.423   0.209 108.294  1.00  0.00     0.009 C 
BRANCH   6   7
HETATM    7  C13 UNL     1      51.810   1.188 109.406  1.00  0.00     0.000 C 
BRANCH   7   8
HETATM    8  C12 UNL     1      52.323   2.527 108.872  1.00  0.00     0.000 C 
BRANCH   8   9
HETATM    9  C11 UNL     1      52.421   2.582 107.343  1.00  0.00     0.000 C 
BRANCH   9  10
HETATM   10  C10 UNL     1      51.460   3.592 106.708  1.00  0.00     0.000 C 
BRANCH  10  11
HETATM   11  C9  UNL     1      50.149   2.972 106.209  1.00  0.00     0.000 C 
BRANCH  11  12
HETATM   12  C8  UNL     1      50.299   1.936 105.090  1.00  0.00     0.000 C 
BRANCH  12  13
HETATM   13  C7  UNL     1      49.073   1.076 104.778  1.00  0.00     0.000 C 
BRANCH  13  14
HETATM   14  C6  UNL     1      47.813   1.838 104.365  1.00  0.00     0.000 C 
BRANCH  14  15
HETATM   15  C5  UNL     1      47.282   1.570 102.951  1.00  0.00     0.000 C 
BRANCH  15  16
HETATM   16  C4  UNL     1      47.207   2.807 102.048  1.00  0.00     0.000 C 
BRANCH  16  17
HETATM   17  C3  UNL     1      48.398   3.028 101.110  1.00  0.00    -0.000 C 
BRANCH  17  18
HETATM   18  C2  UNL     1      49.064   1.764 100.557  1.00  0.00    -0.005 C 
HETATM   19  C1  UNL     1      50.579   1.760 100.687  1.00  0.00     0.005 C 
ENDBRANCH  17  18
ENDBRANCH  16  17
ENDBRANCH  15  16
ENDBRANCH  14  15
ENDBRANCH  13  14
ENDBRANCH  12  13
ENDBRANCH  11  12
ENDBRANCH  10  11
ENDBRANCH   9  10
ENDBRANCH   8   9
ENDBRANCH   7   8
ENDBRANCH   6   7
ENDBRANCH   5   6
ENDBRANCH   1   5
BRANCH   2  20
HETATM   20  C17 UNL     1      48.193  -3.290 106.816  1.00  0.00     0.127 C 
BRANCH  20  21
HETATM   21  C18 UNL     1      46.745  -3.152 106.329  1.00  0.00     0.060 C 
BRANCH  21  22
HETATM   22  C19 UNL     1      46.511  -3.823 105.007  1.00  0.00    -0.029 A 
HETATM   23  C20 UNL     1      46.027  -3.209 103.806  1.00  0.00     0.001 A 
HETATM   24  C21 UNL     1      45.980  -4.196 102.820  1.00  0.00     0.043 A 
HETATM   25  C23 UNL     1      45.631  -1.901 103.466  1.00  0.00     0.050 A 
HETATM   26  N2  UNL     1      46.400  -5.370 103.404  1.00  0.00    -0.365 N 
HETATM   27  C26 UNL     1      45.559  -3.939 101.509  1.00  0.00     0.033 A 
HETATM   28  C22 UNL     1      46.727  -5.156 104.715  1.00  0.00     0.096 A 
HETATM   29  H37 UNL     1      46.457  -6.257 102.925  1.00  0.00     0.165 HD
HETATM   30  C25 UNL     1      45.179  -2.631 101.191  1.00  0.00     0.039 A 
HETATM   31  C24 UNL     1      45.218  -1.634 102.160  1.00  0.00     0.066 A 
BRANCH  31  32
HETATM   32  O2  UNL     1      44.856  -0.350 101.867  1.00  0.00    -0.361 OA
HETATM   33  H42 UNL     1      45.636   0.220 101.952  1.00  0.00     0.217 HD
ENDBRANCH  31  32
ENDBRANCH  21  22
ENDBRANCH  20  21
ENDBRANCH   2  20
TORSDOF 18
ENDMDL
