MODEL 1
REMARK VINA RESULT:      -6.4      0.000      0.000
REMARK  15 active torsions:
REMARK  status: ('A' for Active; 'I' for Inactive)
REMARK    1  A    between atoms: C1_1  and  C5_5 
REMARK    2  A    between atoms: C2_2  and  C12_12 
REMARK    3  A    between atoms: C3_3  and  C6_6 
REMARK    4  A    between atoms: C4_4  and  C5_5 
REMARK    5  A    between atoms: C6_6  and  C7_7 
REMARK    6  A    between atoms: C7_7  and  C8_8 
REMARK    7  A    between atoms: C8_8  and  C9_9 
REMARK    8  A    between atoms: C9_9  and  C10_10 
REMARK    9  A    between atoms: C10_10  and  C11_11 
REMARK   10  A    between atoms: C11_11  and  C20_20 
REMARK   11  A    between atoms: C12_12  and  C13_13 
REMARK   12  A    between atoms: C14_14  and  C15_15 
REMARK   13  A    between atoms: C15_15  and  C16_16 
REMARK   14  A    between atoms: C17_17  and  C18_18 
REMARK   15  A    between atoms: C20_20  and  O2_22 
ROOT
HETATM    1  C3  UNL     1      50.378  -0.791 106.167  1.00  0.00    -0.030 C 
HETATM    2  C4  UNL     1      50.040  -0.820 107.467  1.00  0.00    -0.027 C 
ENDROOT
BRANCH   2   3
HETATM    3  C5  UNL     1      50.079   0.321 108.442  1.00  0.00     0.053 C 
BRANCH   3   4
HETATM    4  C1  UNL     1      51.263   0.199 109.360  1.00  0.00    -0.027 C 
HETATM    5  C2  UNL     1      52.195   1.131 109.631  1.00  0.00    -0.027 C 
BRANCH   5   6
HETATM    6  C12 UNL     1      52.261   2.541 109.118  1.00  0.00     0.053 C 
BRANCH   6   7
HETATM    7  C13 UNL     1      52.669   2.570 107.673  1.00  0.00    -0.027 C 
HETATM    8  C14 UNL     1      52.405   3.529 106.769  1.00  0.00    -0.027 C 
BRANCH   8   9
HETATM    9  C15 UNL     1      51.684   4.827 106.998  1.00  0.00     0.053 C 
BRANCH   9  10
HETATM   10  C16 UNL     1      51.389   5.517 105.698  1.00  0.00    -0.027 C 
HETATM   11  C17 UNL     1      52.173   6.371 105.017  1.00  0.00    -0.031 C 
BRANCH  11  12
HETATM   12  C18 UNL     1      53.548   6.848 105.385  1.00  0.00     0.022 C 
HETATM   13  C19 UNL     1      54.589   5.763 105.149  1.00  0.00     0.009 C 
ENDBRANCH  11  12
ENDBRANCH   9  10
ENDBRANCH   8   9
ENDBRANCH   6   7
ENDBRANCH   5   6
ENDBRANCH   3   4
ENDBRANCH   2   3
BRANCH   1  14
HETATM   14  C6  UNL     1      50.855   0.399 105.385  1.00  0.00     0.027 C 
BRANCH  14  15
HETATM   15  C7  UNL     1      49.741   1.300 104.836  1.00  0.00     0.004 C 
BRANCH  15  16
HETATM   16  C8  UNL     1      48.438   0.588 104.454  1.00  0.00     0.000 C 
BRANCH  16  17
HETATM   17  C9  UNL     1      47.325   1.519 103.977  1.00  0.00     0.001 C 
BRANCH  17  18
HETATM   18  C10 UNL     1      47.621   2.976 104.343  1.00  0.00     0.010 C 
BRANCH  18  19
HETATM   19  C11 UNL     1      47.568   3.877 103.116  1.00  0.00     0.110 C 
BRANCH  19  20
HETATM   20  C20 UNL     1      48.913   4.478 102.830  1.00  0.00     0.139 C 
HETATM   21  O1  UNL     1      49.238   5.639 103.011  1.00  0.00    -0.650 OA
BRANCH  20  22
HETATM   22  O2  UNL     1      49.787   3.589 102.325  1.00  0.00    -0.776 OA
HETATM   23  H32 UNL     1      50.571   4.133 102.102  1.00  0.00     0.167 HD
ENDBRANCH  20  22
ENDBRANCH  19  20
ENDBRANCH  18  19
ENDBRANCH  17  18
ENDBRANCH  16  17
ENDBRANCH  15  16
ENDBRANCH  14  15
ENDBRANCH   1  14
TORSDOF 15
ENDMDL
