MODEL 1
REMARK VINA RESULT:      -7.9      0.000      0.000
REMARK  9 active torsions:
REMARK  status: ('A' for Active; 'I' for Inactive)
REMARK    1  A    between atoms: C1_1  and  C2_2 
REMARK       I    between atoms: C1_1  and  N1_4 
REMARK    2  A    between atoms: N1_4  and  C11_15 
REMARK    3  A    between atoms: N3_6  and  C9_13 
REMARK    4  A    between atoms: C9_13  and  C10_14 
REMARK    5  A    between atoms: C10_14  and  C14_20 
REMARK    6  A    between atoms: C11_15  and  C12_16 
REMARK    7  A    between atoms: C11_15  and  C13_17 
REMARK    8  A    between atoms: C12_16  and  C17_23 
REMARK       I    between atoms: C13_17  and  N4_18 
REMARK    9  A    between atoms: C14_20  and  C15_21 
ROOT
HETATM    1  C2  UNL     1      50.786   2.146 105.937  1.00  0.00     0.157 A 
HETATM    2  N2  UNL     1      51.379   3.327 105.693  1.00  0.00    -0.166 NA
HETATM    3  N3  UNL     1      52.035   3.621 106.828  1.00  0.00    -0.268 N 
HETATM    4  C3  UNL     1      51.923   2.660 107.802  1.00  0.00     0.065 A 
HETATM    5  C4  UNL     1      51.109   1.674 107.249  1.00  0.00     0.028 A 
HETATM    6  C5  UNL     1      52.448   2.569 109.099  1.00  0.00     0.032 A 
HETATM    7  C6  UNL     1      52.132   1.430 109.848  1.00  0.00     0.002 A 
HETATM    8  C7  UNL     1      51.331   0.421 109.317  1.00  0.00     0.001 A 
HETATM    9  C8  UNL     1      50.818   0.527 108.019  1.00  0.00     0.016 A 
ENDROOT
BRANCH   1  10
HETATM   10  C1  UNL     1      49.918   1.517 104.928  1.00  0.00     0.273 C 
HETATM   11  O1  UNL     1      49.493   0.365 105.014  1.00  0.00    -0.266 OA
HETATM   12  N1  UNL     1      49.677   2.292 103.805  1.00  0.00    -0.342 N 
HETATM   13  H1  UNL     1      50.339   3.040 103.632  1.00  0.00     0.163 HD
BRANCH  12  14
HETATM   14  C11 UNL     1      49.032   1.707 102.627  1.00  0.00     0.180 C 
BRANCH  14  15
HETATM   15  C12 UNL     1      47.506   1.958 102.648  1.00  0.00     0.013 C 
HETATM   16  C19 UNL     1      46.739   0.665 102.961  1.00  0.00     0.012 C 
BRANCH  15  17
HETATM   17  C17 UNL     1      47.085   3.084 103.621  1.00  0.00     0.002 C 
HETATM   18  C18 UNL     1      47.141   4.493 103.049  1.00  0.00     0.005 C 
ENDBRANCH  15  17
ENDBRANCH  14  15
BRANCH  14  19
HETATM   19  C13 UNL     1      49.712   2.384 101.417  1.00  0.00     0.238 C 
HETATM   20  N4  UNL     1      49.734   1.628 100.274  1.00  0.00    -0.368 N 
HETATM   21  H12 UNL     1      49.671   0.614 100.371  1.00  0.00     0.159 HD
HETATM   22  H13 UNL     1      50.333   1.968  99.532  1.00  0.00     0.159 HD
HETATM   23  O2  UNL     1      50.293   3.465 101.468  1.00  0.00    -0.271 OA
ENDBRANCH  14  19
ENDBRANCH  12  14
ENDBRANCH   1  10
BRANCH   3  24
HETATM   24  C9  UNL     1      52.775   4.866 106.913  1.00  0.00     0.151 C 
BRANCH  24  25
HETATM   25  C10 UNL     1      54.176   4.790 106.301  1.00  0.00     0.022 C 
BRANCH  25  26
HETATM   26  C14 UNL     1      54.386   5.795 105.165  1.00  0.00     0.001 C 
BRANCH  26  27
HETATM   27  C15 UNL     1      53.261   6.827 105.052  1.00  0.00    -0.004 C 
HETATM   28  C16 UNL     1      52.515   6.778 103.727  1.00  0.00     0.005 C 
ENDBRANCH  26  27
ENDBRANCH  25  26
ENDBRANCH  24  25
ENDBRANCH   3  24
TORSDOF 9
ENDMDL
