MODEL 1
REMARK VINA RESULT:      -8.2      0.000      0.000
REMARK  10 active torsions:
REMARK  status: ('A' for Active; 'I' for Inactive)
REMARK    1  A    between atoms: C1_1  and  O2_28 
REMARK    2  A    between atoms: C7_8  and  C10_11 
REMARK    3  A    between atoms: C10_11  and  C11_12 
REMARK    4  A    between atoms: C11_12  and  C12_13 
REMARK    5  A    between atoms: C14_15  and  C15_16 
REMARK    6  A    between atoms: C15_16  and  C17_18 
REMARK    7  A    between atoms: C17_18  and  C18_19 
REMARK    8  A    between atoms: C19_20  and  C20_21 
REMARK    9  A    between atoms: C20_21  and  C22_23 
REMARK   10  A    between atoms: C22_23  and  C23_24 
ROOT
HETATM    1  C10 UNL     1      49.172   1.560 103.701  1.00  0.00     0.042 C 
ENDROOT
BRANCH   1   2
HETATM    2  C7  UNL     1      50.224   1.229 104.793  1.00  0.00     0.065 C 
HETATM    3  O1  UNL     1      50.591   2.516 105.331  1.00  0.00    -0.339 OA
HETATM    4  C4  UNL     1      51.161   2.564 106.576  1.00  0.00     0.082 A 
HETATM    5  C3  UNL     1      51.713   3.803 106.942  1.00  0.00    -0.025 A 
HETATM    6  C5  UNL     1      51.192   1.471 107.460  1.00  0.00    -0.015 A 
HETATM    7  C2  UNL     1      52.316   3.939 108.195  1.00  0.00     0.046 A 
HETATM    8  C27 UNL     1      51.656   4.975 106.003  1.00  0.00     0.051 C 
HETATM    9  C1  UNL     1      52.376   2.850 109.065  1.00  0.00     0.072 A 
HETATM   10  C6  UNL     1      51.839   1.605 108.711  1.00  0.00    -0.020 A 
HETATM   11  C28 UNL     1      51.908   0.449 109.676  1.00  0.00     0.052 C 
HETATM   12  C9  UNL     1      50.565   0.165 107.052  1.00  0.00     0.045 C 
HETATM   13  C8  UNL     1      49.606   0.347 105.885  1.00  0.00     0.043 C 
HETATM   14  C13 UNL     1      51.471   0.599 104.153  1.00  0.00     0.046 C 
BRANCH   9  15
HETATM   15  O2  UNL     1      52.964   2.998 110.290  1.00  0.00    -0.360 OA
HETATM   16  H36 UNL     1      53.923   3.081 110.168  1.00  0.00     0.217 HD
ENDBRANCH   9  15
ENDBRANCH   1   2
BRANCH   1  17
HETATM   17  C11 UNL     1      47.730   1.133 104.003  1.00  0.00     0.030 C 
BRANCH  17  18
HETATM   18  C12 UNL     1      46.982   0.866 102.724  1.00  0.00    -0.024 C 
HETATM   19  C14 UNL     1      46.129  -0.139 102.440  1.00  0.00    -0.087 C 
HETATM   20  C16 UNL     1      45.774  -1.263 103.375  1.00  0.00     0.043 C 
BRANCH  19  21
HETATM   21  C15 UNL     1      45.468  -0.204 101.074  1.00  0.00     0.037 C 
BRANCH  21  22
HETATM   22  C17 UNL     1      46.474  -0.445  99.941  1.00  0.00     0.031 C 
BRANCH  22  23
HETATM   23  C18 UNL     1      47.238  -1.725 100.149  1.00  0.00    -0.024 C 
HETATM   24  C19 UNL     1      46.883  -2.971  99.779  1.00  0.00    -0.087 C 
HETATM   25  C21 UNL     1      45.576  -3.327  99.125  1.00  0.00     0.043 C 
BRANCH  24  26
HETATM   26  C20 UNL     1      47.819  -4.139 100.049  1.00  0.00     0.037 C 
BRANCH  26  27
HETATM   27  C22 UNL     1      47.146  -5.363 100.689  1.00  0.00     0.031 C 
BRANCH  27  28
HETATM   28  C23 UNL     1      47.051  -5.274 102.189  1.00  0.00    -0.024 C 
HETATM   29  C24 UNL     1      45.959  -4.996 102.928  1.00  0.00    -0.091 C 
HETATM   30  C25 UNL     1      46.037  -4.969 104.432  1.00  0.00     0.042 C 
HETATM   31  C26 UNL     1      44.599  -4.677 102.369  1.00  0.00     0.042 C 
ENDBRANCH  27  28
ENDBRANCH  26  27
ENDBRANCH  24  26
ENDBRANCH  22  23
ENDBRANCH  21  22
ENDBRANCH  19  21
ENDBRANCH  17  18
ENDBRANCH   1  17
TORSDOF 10
ENDMDL
