MODEL 1
REMARK VINA RESULT:      -6.7      0.000      0.000
REMARK  12 active torsions:
REMARK  status: ('A' for Active; 'I' for Inactive)
REMARK    1  A    between atoms: C3_3  and  N4_22 
REMARK    2  A    between atoms: C6_6  and  N3_10 
REMARK    3  A    between atoms: N3_10  and  C7_11 
REMARK    4  A    between atoms: C7_11  and  C8_12 
REMARK    5  A    between atoms: C8_12  and  C9_14 
REMARK    6  A    between atoms: C9_14  and  C10_15 
REMARK    7  A    between atoms: C9_14  and  O5_20 
REMARK    8  A    between atoms: C10_15  and  C11_16 
REMARK    9  A    between atoms: C10_15  and  O6_21 
REMARK   10  A    between atoms: C11_16  and  C12_17 
REMARK   11  A    between atoms: C11_16  and  O4_19 
REMARK   12  A    between atoms: C12_17  and  O3_18 
ROOT
HETATM    1  C7  UNL     1      49.207   1.400 104.363  1.00  0.00     0.173 C 
ENDROOT
BRANCH   1   2
HETATM    2  N3  UNL     1      50.514   2.042 104.594  1.00  0.00    -0.284 NA
HETATM    3  H3  UNL     1      51.221   1.622 103.974  1.00  0.00     0.128 HD
BRANCH   2   4
HETATM    4  C6  UNL     1      51.009   2.043 105.904  1.00  0.00     0.042 A 
HETATM    5  C1  UNL     1      50.750   0.996 106.825  1.00  0.00     0.028 A 
HETATM    6  C2  UNL     1      51.211   0.984 108.166  1.00  0.00     0.040 A 
HETATM    7  C3  UNL     1      51.953   2.055 108.691  1.00  0.00     0.136 A 
HETATM    8  C4  UNL     1      52.236   3.133 107.839  1.00  0.00     0.152 A 
HETATM    9  C5  UNL     1      51.757   3.123 106.460  1.00  0.00     0.141 A 
HETATM   10  N1  UNL     1      52.929   4.265 108.026  1.00  0.00    -0.100 NA
HETATM   11  N2  UNL     1      52.152   4.261 105.872  1.00  0.00    -0.101 NA
HETATM   12  O1  UNL     1      52.861   4.958 106.831  1.00  0.00    -0.106 OA
BRANCH   7  13
HETATM   13  N4  UNL     1      52.430   2.058 110.045  1.00  0.00    -0.113 N 
HETATM   14  O7  UNL     1      52.720   0.955 110.528  1.00  0.00    -0.532 OA
HETATM   15  O8  UNL     1      52.470   3.137 110.644  1.00  0.00    -0.532 OA
ENDBRANCH   7  13
ENDBRANCH   2   4
ENDBRANCH   1   2
BRANCH   1  16
HETATM   16  C8  UNL     1      48.195   2.399 103.796  1.00  0.00     0.171 C 
HETATM   17  O2  UNL     1      47.174   2.721 104.413  1.00  0.00    -0.294 OA
BRANCH  16  18
HETATM   18  C9  UNL     1      48.483   2.996 102.418  1.00  0.00     0.220 C 
BRANCH  18  19
HETATM   19  C10 UNL     1      47.416   2.567 101.402  1.00  0.00     0.185 C 
BRANCH  19  20
HETATM   20  C11 UNL     1      47.363   1.047 101.159  1.00  0.00     0.173 C 
BRANCH  20  21
HETATM   21  C12 UNL     1      46.001   0.500 100.719  1.00  0.00     0.198 C 
BRANCH  21  22
HETATM   22  O3  UNL     1      45.245   0.145 101.877  1.00  0.00    -0.398 OA
HETATM   23  H11 UNL     1      44.979   0.993 102.287  1.00  0.00     0.209 HD
ENDBRANCH  21  22
ENDBRANCH  20  21
BRANCH  20  24
HETATM   24  O4  UNL     1      48.308   0.717 100.121  1.00  0.00    -0.391 OA
HETATM   25  H12 UNL     1      49.171   0.605 100.569  1.00  0.00     0.210 HD
ENDBRANCH  20  24
ENDBRANCH  19  20
BRANCH  19  26
HETATM   26  O6  UNL     1      46.117   3.006 101.846  1.00  0.00    -0.390 OA
HETATM   27  H14 UNL     1      46.231   3.292 102.778  1.00  0.00     0.210 HD
ENDBRANCH  19  26
ENDBRANCH  18  19
BRANCH  18  28
HETATM   28  O5  UNL     1      49.772   2.599 101.950  1.00  0.00    -0.385 OA
HETATM   29  H13 UNL     1      50.097   1.913 102.566  1.00  0.00     0.210 HD
ENDBRANCH  18  28
ENDBRANCH  16  18
ENDBRANCH   1  16
TORSDOF 12
ENDMDL
