MODEL 1
REMARK VINA RESULT:      -7.7      0.000      0.000
REMARK  7 active torsions:
REMARK  status: ('A' for Active; 'I' for Inactive)
REMARK    1  A    between atoms: C13_13  and  C14_14 
REMARK    2  A    between atoms: C14_14  and  O2_22 
REMARK    3  A    between atoms: C17_17  and  C19_19 
REMARK    4  A    between atoms: C19_19  and  C21_24 
REMARK    5  A    between atoms: C21_24  and  O5_26 
REMARK    6  A    between atoms: O5_26  and  S1_27 
REMARK    7  A    between atoms: S1_27  and  O6_28 
ROOT
HETATM    1  C1  UNL     1      47.132   2.016  96.212  1.00  0.00     0.084 C 
HETATM    2  C2  UNL     1      46.604   0.605  96.131  1.00  0.00     0.149 C 
HETATM    3  C3  UNL     1      46.413  -0.161  97.386  1.00  0.00     0.053 C 
HETATM    4  C4  UNL     1      46.593   0.398  98.595  1.00  0.00    -0.068 C 
HETATM    5  C5  UNL     1      46.991   1.872  98.775  1.00  0.00    -0.014 C 
HETATM    6  C6  UNL     1      47.832   2.293  97.540  1.00  0.00     0.022 C 
HETATM    7  C7  UNL     1      46.501  -0.466  99.833  1.00  0.00     0.035 C 
HETATM    8  C8  UNL     1      46.134   0.308 101.095  1.00  0.00     0.010 A 
HETATM    9  C9  UNL     1      47.008   1.555 101.345  1.00  0.00    -0.002 A 
HETATM   10  C10 UNL     1      47.846   1.961 100.088  1.00  0.00     0.031 A 
HETATM   11  C11 UNL     1      47.992   1.405 102.512  1.00  0.00     0.006 A 
HETATM   12  C12 UNL     1      48.673   2.745 102.866  1.00  0.00     0.029 A 
HETATM   13  C13 UNL     1      49.447   3.286 101.650  1.00  0.00     0.050 A 
HETATM   14  C14 UNL     1      48.653   3.268 100.319  1.00  0.00     0.124 A 
HETATM   15  C15 UNL     1      47.512   0.900 103.868  1.00  0.00     0.007 A 
HETATM   16  C16 UNL     1      48.645   1.308 104.829  1.00  0.00     0.014 C 
HETATM   17  C17 UNL     1      49.565   2.269 104.041  1.00  0.00     0.073 C 
HETATM   18  C18 UNL     1      47.644   3.786 103.359  1.00  0.00     0.242 A 
HETATM   19  O1  UNL     1      46.311   0.079  95.058  1.00  0.00    -0.293 OA
HETATM   20  C20 UNL     1      45.706   2.734  98.828  1.00  0.00     0.020 C 
HETATM   21  O3  UNL     1      47.040   4.559 102.621  1.00  0.00    -0.306 OA
HETATM   22 NA1  UNL     1      48.123   1.786 101.704  1.00  0.00     0.000 Na
ENDROOT
BRANCH  17  23
HETATM   23  C19 UNL     1      50.181   3.356 104.918  1.00  0.00     0.157 C 
HETATM   24  O4  UNL     1      50.276   4.523 104.539  1.00  0.00    -0.295 OA
BRANCH  23  25
HETATM   25  C21 UNL     1      50.715   2.936 106.278  1.00  0.00     0.270 C 
BRANCH  25  26
HETATM   26  O5  UNL     1      52.076   2.587 106.179  1.00  0.00    -0.256 OA
BRANCH  26  27
HETATM   27  S1  UNL     1      53.152   3.642 106.767  1.00  0.00     0.240 S 
HETATM   28  O7  UNL     1      52.704   4.040 108.081  1.00  0.00    -0.579 OA
HETATM   29  O8  UNL     1      54.469   3.107 106.526  1.00  0.00    -0.579 OA
BRANCH  27  30
HETATM   30  O6  UNL     1      52.980   4.890 105.772  1.00  0.00    -0.274 OA
HETATM   31  H28 UNL     1      52.340   5.513 106.175  1.00  0.00     0.234 HD
ENDBRANCH  27  30
ENDBRANCH  26  27
ENDBRANCH  25  26
ENDBRANCH  23  25
ENDBRANCH  17  23
BRANCH  14  32
HETATM   32  O2  UNL     1      47.843   4.421 100.182  1.00  0.00    -0.395 OA
HETATM   33  H25 UNL     1      47.262   4.319  99.396  1.00  0.00     0.210 HD
ENDBRANCH  14  32
TORSDOF 7
ENDMDL
