MODEL 1
REMARK VINA RESULT:      -6.1      0.000      0.000
REMARK  16 active torsions:
REMARK  status: ('A' for Active; 'I' for Inactive)
REMARK    1  A    between atoms: C1_1  and  C2_2 
REMARK    2  A    between atoms: C1_1  and  C5_5 
REMARK    3  A    between atoms: C3_3  and  C12_13 
REMARK    4  A    between atoms: C4_4  and  C5_5 
REMARK    5  A    between atoms: C5_5  and  O1_6 
REMARK    6  A    between atoms: C6_7  and  C7_8 
REMARK    7  A    between atoms: C8_9  and  C9_10 
REMARK    8  A    between atoms: C9_10  and  C10_11 
REMARK    9  A    between atoms: C10_11  and  C11_12 
REMARK   10  A    between atoms: C11_12  and  C20_21 
REMARK   11  A    between atoms: C12_13  and  C13_14 
REMARK   12  A    between atoms: C14_15  and  C15_16 
REMARK   13  A    between atoms: C15_16  and  C16_17 
REMARK   14  A    between atoms: C16_17  and  C17_18 
REMARK   15  A    between atoms: C17_18  and  C18_19 
REMARK   16  A    between atoms: C20_21  and  O3_23 
ROOT
HETATM    1  C5  UNL     1      50.107  -1.132 107.582  1.00  0.00     0.144 C 
ENDROOT
BRANCH   1   2
HETATM    2  C1  UNL     1      49.633  -0.770 106.158  1.00  0.00     0.062 C 
BRANCH   2   3
HETATM    3  C2  UNL     1      50.640  -0.009 105.327  1.00  0.00    -0.027 C 
HETATM    4  C3  UNL     1      50.578   1.280 104.952  1.00  0.00    -0.027 C 
BRANCH   4   5
HETATM    5  C12 UNL     1      49.526   2.293 105.307  1.00  0.00     0.053 C 
BRANCH   5   6
HETATM    6  C13 UNL     1      49.513   3.420 104.315  1.00  0.00    -0.027 C 
HETATM    7  C14 UNL     1      48.496   3.829 103.537  1.00  0.00    -0.030 C 
BRANCH   7   8
HETATM    8  C15 UNL     1      47.109   3.260 103.465  1.00  0.00     0.027 C 
BRANCH   8   9
HETATM    9  C16 UNL     1      46.938   2.385 102.221  1.00  0.00     0.004 C 
BRANCH   9  10
HETATM   10  C17 UNL     1      47.477   0.972 102.459  1.00  0.00    -0.000 C 
BRANCH  10  11
HETATM   11  C18 UNL     1      46.875   0.293 103.691  1.00  0.00    -0.005 C 
HETATM   12  C19 UNL     1      45.864  -0.792 103.353  1.00  0.00     0.005 C 
ENDBRANCH  10  11
ENDBRANCH   9  10
ENDBRANCH   8   9
ENDBRANCH   7   8
ENDBRANCH   5   6
ENDBRANCH   4   5
ENDBRANCH   2   3
ENDBRANCH   1   2
BRANCH   1  13
HETATM   13  C4  UNL     1      50.483   0.053 108.427  1.00  0.00     0.005 C 
HETATM   14  C6  UNL     1      51.732   0.302 108.851  1.00  0.00    -0.002 C 
BRANCH  14  15
HETATM   15  C7  UNL     1      52.065   1.444 109.672  1.00  0.00    -0.004 C 
HETATM   16  C8  UNL     1      52.329   2.683 109.230  1.00  0.00    -0.027 C 
BRANCH  16  17
HETATM   17  C9  UNL     1      52.294   3.182 107.813  1.00  0.00     0.027 C 
BRANCH  17  18
HETATM   18  C10 UNL     1      52.392   4.706 107.678  1.00  0.00     0.014 C 
BRANCH  18  19
HETATM   19  C11 UNL     1      52.141   5.226 106.264  1.00  0.00     0.110 C 
BRANCH  19  20
HETATM   20  C20 UNL     1      53.413   5.617 105.564  1.00  0.00     0.139 C 
HETATM   21  O2  UNL     1      53.511   6.082 104.442  1.00  0.00    -0.650 OA
BRANCH  20  22
HETATM   22  O3  UNL     1      54.509   5.422 106.323  1.00  0.00    -0.776 OA
HETATM   23  H32 UNL     1      54.272   4.644 106.870  1.00  0.00     0.167 HD
ENDBRANCH  20  22
ENDBRANCH  19  20
ENDBRANCH  18  19
ENDBRANCH  17  18
ENDBRANCH  16  17
ENDBRANCH  14  15
ENDBRANCH   1  13
BRANCH   1  24
HETATM   24  O1  UNL     1      49.095  -1.865 108.270  1.00  0.00    -0.391 OA
HETATM   25  H11 UNL     1      49.544  -2.426 108.924  1.00  0.00     0.210 HD
ENDBRANCH   1  24
TORSDOF 16
ENDMDL
