MODEL 1
REMARK VINA RESULT:      -6.2      0.000      0.000
REMARK  16 active torsions:
REMARK  status: ('A' for Active; 'I' for Inactive)
REMARK    1  A    between atoms: C1_1  and  C2_2 
REMARK    2  A    between atoms: C1_1  and  C5_5 
REMARK    3  A    between atoms: C3_3  and  C12_12 
REMARK    4  A    between atoms: C4_4  and  C5_5 
REMARK    5  A    between atoms: C4_4  and  C6_6 
REMARK    6  A    between atoms: C6_6  and  C7_7 
REMARK    7  A    between atoms: C7_7  and  C8_8 
REMARK    8  A    between atoms: C8_8  and  C9_9 
REMARK    9  A    between atoms: C9_9  and  C10_10 
REMARK   10  A    between atoms: C10_10  and  C11_11 
REMARK   11  A    between atoms: C11_11  and  C20_20 
REMARK   12  A    between atoms: C12_12  and  C13_13 
REMARK   13  A    between atoms: C14_14  and  C15_15 
REMARK   14  A    between atoms: C15_15  and  C16_16 
REMARK   15  A    between atoms: C17_17  and  C18_18 
REMARK   16  A    between atoms: C20_20  and  O2_22 
ROOT
HETATM    1  C5  UNL     1      50.509   0.013 109.350  1.00  0.00     0.004 C 
ENDROOT
BRANCH   1   2
HETATM    2  C1  UNL     1      51.851   0.581 108.881  1.00  0.00     0.027 C 
BRANCH   2   3
HETATM    3  C2  UNL     1      52.138   1.911 109.518  1.00  0.00    -0.030 C 
HETATM    4  C3  UNL     1      52.268   3.096 108.896  1.00  0.00    -0.027 C 
BRANCH   4   5
HETATM    5  C12 UNL     1      52.101   3.386 107.431  1.00  0.00     0.053 C 
BRANCH   5   6
HETATM    6  C13 UNL     1      53.308   2.942 106.659  1.00  0.00    -0.027 C 
HETATM    7  C14 UNL     1      54.333   3.705 106.244  1.00  0.00    -0.027 C 
BRANCH   7   8
HETATM    8  C15 UNL     1      54.506   5.184 106.427  1.00  0.00     0.053 C 
BRANCH   8   9
HETATM    9  C16 UNL     1      54.273   5.993 105.179  1.00  0.00    -0.027 C 
HETATM   10  C17 UNL     1      53.131   6.566 104.766  1.00  0.00    -0.031 C 
BRANCH  10  11
HETATM   11  C18 UNL     1      51.796   6.537 105.458  1.00  0.00     0.022 C 
HETATM   12  C19 UNL     1      50.814   5.653 104.709  1.00  0.00     0.009 C 
ENDBRANCH  10  11
ENDBRANCH   8   9
ENDBRANCH   7   8
ENDBRANCH   5   6
ENDBRANCH   4   5
ENDBRANCH   2   3
ENDBRANCH   1   2
BRANCH   1  13
HETATM   13  C4  UNL     1      49.921  -0.934 108.300  1.00  0.00     0.000 C 
BRANCH  13  14
HETATM   14  C6  UNL     1      50.629  -0.860 106.943  1.00  0.00     0.000 C 
BRANCH  14  15
HETATM   15  C7  UNL     1      49.832  -0.090 105.888  1.00  0.00     0.000 C 
BRANCH  15  16
HETATM   16  C8  UNL     1      50.709   0.773 104.974  1.00  0.00     0.000 C 
BRANCH  16  17
HETATM   17  C9  UNL     1      50.042   2.019 104.384  1.00  0.00     0.001 C 
BRANCH  17  18
HETATM   18  C10 UNL     1      48.614   2.246 104.890  1.00  0.00     0.010 C 
BRANCH  18  19
HETATM   19  C11 UNL     1      47.566   2.004 103.807  1.00  0.00     0.110 C 
BRANCH  19  20
HETATM   20  C20 UNL     1      47.164   3.269 103.103  1.00  0.00     0.139 C 
HETATM   21  O1  UNL     1      47.594   4.387 103.333  1.00  0.00    -0.650 OA
BRANCH  20  22
HETATM   22  O2  UNL     1      46.229   3.070 102.152  1.00  0.00    -0.776 OA
HETATM   23  H34 UNL     1      46.368   2.139 101.874  1.00  0.00     0.167 HD
ENDBRANCH  20  22
ENDBRANCH  19  20
ENDBRANCH  18  19
ENDBRANCH  17  18
ENDBRANCH  16  17
ENDBRANCH  15  16
ENDBRANCH  14  15
ENDBRANCH  13  14
ENDBRANCH   1  13
TORSDOF 16
ENDMDL
